/*--------------------------------*- C++ -*----------------------------------*\
| =========                 |                                                 |
| \\      /  F ield         | OpenFOAM: The Open Source CFD Toolbox           |
|  \\    /   O peration     | Version:  2106                                  |
|   \\  /    A nd           | Website:  www.openfoam.com                      |
|    \\/     M anipulation  |                                                 |
\*---------------------------------------------------------------------------*/
FoamFile
{
    version     2.0;
    format      ascii;
    arch        "LSB;label=32;scalar=64";
    class       surfaceScalarField;
    location    "9.4";
    object      phi;
}
// * * * * * * * * * * * * * * * * * * * * * * * * * * * * * * * * * * * * * //

dimensions      [1 0 -1 0 0 0 0];

oriented        oriented;

internalField   nonuniform List<scalar> 
23692
(
9.319e-05
-1.10605e-07
9.33905e-05
-2.00478e-07
9.36712e-05
-2.80681e-07
9.40226e-05
-3.51416e-07
9.44375e-05
-4.1484e-07
9.49098e-05
-4.72268e-07
9.54344e-05
-5.24571e-07
9.60069e-05
-5.72444e-07
9.66233e-05
-6.16427e-07
9.72803e-05
-6.56954e-07
9.79747e-05
-6.94375e-07
9.87038e-05
-7.28986e-07
9.94648e-05
-7.61027e-07
0.000100256
-7.90714e-07
0.000101074
-8.18219e-07
0.000101918
-8.43694e-07
0.000102785
-8.67274e-07
0.000103674
-8.8907e-07
0.000104583
-9.09179e-07
0.000105511
-9.27689e-07
0.000106456
-9.44677e-07
0.000107416
-9.60206e-07
0.00010839
-9.7434e-07
0.000109378
-9.87127e-07
0.000110376
-9.98615e-07
0.000111385
-1.00884e-06
0.000112403
-1.01785e-06
0.000113429
-1.02567e-06
0.000114461
-1.03232e-06
0.000115499
-1.03784e-06
0.000116541
-1.04224e-06
0.000117587
-1.04554e-06
0.000118635
-1.04775e-06
0.000119684
-1.04891e-06
0.000120733
-1.04899e-06
0.000121781
-1.04803e-06
0.000122827
-1.04601e-06
0.00012387
-1.04295e-06
0.000124909
-1.03884e-06
0.000125943
-1.03366e-06
0.00012697
-1.02742e-06
0.00012799
-1.02009e-06
0.000129002
-1.01166e-06
0.000130004
-1.0021e-06
0.000130995
-9.91384e-07
0.000131975
-9.79467e-07
0.000132941
-9.66307e-07
0.000133893
-9.51847e-07
0.000134829
-9.36022e-07
0.000135748
-9.18754e-07
0.000136648
-8.99948e-07
0.000137527
-8.79495e-07
0.000138385
-8.57264e-07
0.000139218
-8.33101e-07
0.000140025
-8.0682e-07
0.000140803
-7.78201e-07
0.00014155
-7.46979e-07
0.000142263
-7.12837e-07
0.000142938
-6.75389e-07
0.000143572
-6.34165e-07
0.000144161
-5.88591e-07
0.000144699
-5.37951e-07
0.00014518
-4.81355e-07
0.000145598
-4.1768e-07
0.000145943
-3.45492e-07
0.000146206
-2.62937e-07
0.000146374
-1.67591e-07
0.00014643
-5.62328e-08
0.000146354
7.55165e-08
0.00014612
2.33798e-07
0.000145693
4.27337e-07
0.000145024
6.68843e-07
0.000144047
9.77343e-07
0.000142665
1.38217e-06
0.000140735
1.92994e-06
0.000138038
2.69692e-06
0.000134227
3.81104e-06
0.000128733
5.49335e-06
0.000120579
8.15461e-06
0.000107932
1.26462e-05
2.14401e-05
8.64923e-05
9.97144e-05
-2.26026e-07
9.99277e-05
-4.13797e-07
0.000100227
-5.8007e-07
0.000100602
-7.26451e-07
0.000101045
-8.57759e-07
0.000101549
-9.76641e-07
0.00010211
-1.0849e-06
0.000102721
-1.18398e-06
0.00010338
-1.27501e-06
0.000104082
-1.35887e-06
0.000104824
-1.4363e-06
0.000105603
-1.50792e-06
0.000106416
-1.57422e-06
0.000107261
-1.63563e-06
0.000108136
-1.69254e-06
0.000109037
-1.74524e-06
0.000109964
-1.79401e-06
0.000110914
-1.83909e-06
0.000111886
-1.88067e-06
0.000112877
-1.91895e-06
0.000113886
-1.95407e-06
0.000114912
-1.98618e-06
0.000115953
-2.01539e-06
0.000117008
-2.04182e-06
0.000118075
-2.06556e-06
0.000119153
-2.08669e-06
0.000120241
-2.10529e-06
0.000121336
-2.12142e-06
0.000122439
-2.13514e-06
0.000123548
-2.14651e-06
0.000124661
-2.15557e-06
0.000125778
-2.16236e-06
0.000126898
-2.1669e-06
0.000128018
-2.16923e-06
0.000129138
-2.16937e-06
0.000130258
-2.16732e-06
0.000131375
-2.1631e-06
0.000132489
-2.15671e-06
0.000133598
-2.14814e-06
0.000134702
-2.13739e-06
0.000135799
-2.12442e-06
0.000136888
-2.10921e-06
0.000137968
-2.09172e-06
0.000139038
-2.07189e-06
0.000140096
-2.04967e-06
0.000141142
-2.02497e-06
0.000142173
-1.99771e-06
0.000143189
-1.96776e-06
0.000144188
-1.93499e-06
0.000145169
-1.89925e-06
0.000146129
-1.86034e-06
0.000147068
-1.81804e-06
0.000147982
-1.77207e-06
0.000148871
-1.72214e-06
0.000149732
-1.66785e-06
0.000150563
-1.60876e-06
0.00015136
-1.54434e-06
0.000152121
-1.47394e-06
0.000152843
-1.39679e-06
0.000153521
-1.31193e-06
0.00015415
-1.21821e-06
0.000154726
-1.1142e-06
0.000155243
-9.98117e-07
0.000155693
-8.67732e-07
0.000156068
-7.20208e-07
0.000156357
-5.51901e-07
0.000156547
-3.58078e-07
0.000156624
-1.32498e-07
0.000156566
1.33189e-07
0.000156349
4.50481e-07
0.000155941
8.35464e-07
0.000155299
1.31102e-06
0.000154366
1.91038e-06
0.000153065
2.68288e-06
0.000151292
3.70307e-06
0.000148904
5.08528e-06
0.00014571
7.00498e-06
0.000141475
9.72787e-06
0.000135979
1.36504e-05
0.000129355
1.92707e-05
2.64518e-05
0.000124343
0.000106695
-3.45584e-07
0.000106921
-6.39686e-07
0.000107238
-8.97955e-07
0.000107637
-1.12547e-06
0.000108109
-1.32947e-06
0.000108647
-1.51411e-06
0.000109244
-1.68223e-06
0.000109896
-1.83608e-06
0.000110599
-1.9774e-06
0.000111347
-2.10758e-06
0.000112139
-2.22778e-06
0.00011297
-2.33893e-06
0.000113838
-2.44181e-06
0.000114739
-2.53712e-06
0.000115672
-2.6254e-06
0.000116634
-2.70716e-06
0.000117623
-2.7828e-06
0.000118637
-2.85271e-06
0.000119673
-2.9172e-06
0.000120731
-2.97654e-06
0.000121808
-3.03098e-06
0.000122902
-3.08074e-06
0.000124013
-3.126e-06
0.000125138
-3.16693e-06
0.000126276
-3.20367e-06
0.000127426
-3.23637e-06
0.000128586
-3.26513e-06
0.000129755
-3.29007e-06
0.000130931
-3.31126e-06
0.000132113
-3.32879e-06
0.000133301
-3.34273e-06
0.000134491
-3.35314e-06
0.000135685
-3.36007e-06
0.000136879
-3.36356e-06
0.000138073
-3.36363e-06
0.000139266
-3.36033e-06
0.000140457
-3.35364e-06
0.000141644
-3.34359e-06
0.000142826
-3.33016e-06
0.000144002
-3.31333e-06
0.000145171
-3.29307e-06
0.000146331
-3.26933e-06
0.000147481
-3.24205e-06
0.000148621
-3.21116e-06
0.000149747
-3.17655e-06
0.000150861
-3.13811e-06
0.000151959
-3.0957e-06
0.00015304
-3.04914e-06
0.000154103
-2.99822e-06
0.000155147
-2.94271e-06
0.000156169
-2.88231e-06
0.000157167
-2.81669e-06
0.000158141
-2.74544e-06
0.000159087
-2.66808e-06
0.000160003
-2.58404e-06
0.000160887
-2.49266e-06
0.000161736
-2.39312e-06
0.000162546
-2.28446e-06
0.000163315
-2.16551e-06
0.000164038
-2.03488e-06
0.00016471
-1.89084e-06
0.000165327
-1.73128e-06
0.000165883
-1.55361e-06
0.00016637
-1.35457e-06
0.00016678
-1.13007e-06
0.000167103
-8.74894e-07
0.000167327
-5.82364e-07
0.000167438
-2.43781e-07
0.000167419
1.52255e-07
0.000167248
6.21007e-07
0.000166901
1.18327e-06
0.000166344
1.86762e-06
0.000165541
2.71378e-06
0.000164446
3.77748e-06
0.000163012
5.13716e-06
0.000161195
6.90254e-06
0.000158977
9.22263e-06
0.000156419
1.22857e-05
0.000153782
1.62878e-05
0.000151786
2.12666e-05
2.65005e-05
0.000151737
0.000114163
-4.68977e-07
0.000114401
-8.77573e-07
0.000114737
-1.23415e-06
0.00011516
-1.54862e-06
0.000115661
-1.83048e-06
0.000116233
-2.0855e-06
0.000116868
-2.31764e-06
0.000117562
-2.53004e-06
0.00011831
-2.72511e-06
0.000119107
-2.90479e-06
0.00011995
-3.07065e-06
0.000120835
-3.224e-06
0.00012176
-3.36593e-06
0.00012272
-3.49738e-06
0.000123714
-3.61912e-06
0.000124738
-3.73185e-06
0.000125792
-3.83613e-06
0.000126872
-3.93248e-06
0.000127976
-4.02134e-06
0.000129102
-4.10308e-06
0.00013025
-4.17806e-06
0.000131415
-4.24655e-06
0.000132598
-4.30883e-06
0.000133797
-4.36513e-06
0.000135009
-4.41565e-06
0.000136233
-4.46057e-06
0.000137468
-4.50006e-06
0.000138712
-4.53425e-06
0.000139964
-4.56327e-06
0.000141223
-4.58724e-06
0.000142486
-4.60624e-06
0.000143754
-4.62037e-06
0.000145023
-4.62968e-06
0.000146294
-4.63425e-06
0.000147565
-4.6341e-06
0.000148834
-4.62928e-06
0.0001501
-4.6198e-06
0.000151362
-4.60567e-06
0.000152619
-4.58688e-06
0.000153869
-4.5634e-06
0.000155111
-4.53519e-06
0.000156344
-4.50219e-06
0.000157566
-4.46431e-06
0.000158777
-4.42145e-06
0.000159974
-4.37349e-06
0.000161156
-4.32027e-06
0.000162322
-4.26158e-06
0.00016347
-4.1972e-06
0.000164598
-4.12685e-06
0.000165706
-4.05022e-06
0.000166791
-3.96691e-06
0.00016785
-3.87646e-06
0.000168883
-3.77835e-06
0.000169887
-3.67193e-06
0.00017086
-3.55646e-06
0.000171798
-3.43104e-06
0.000172699
-3.29462e-06
0.000173561
-3.14593e-06
0.000174379
-2.98345e-06
0.000175149
-2.80537e-06
0.000175868
-2.60946e-06
0.00017653
-2.39304e-06
0.000177129
-2.15281e-06
0.000177659
-1.88468e-06
0.000178112
-1.58358e-06
0.000178481
-1.24315e-06
0.000178754
-8.55323e-07
0.00017892
-4.09856e-07
0.000178966
1.06342e-07
0.000178876
7.10205e-07
0.000178636
1.42383e-06
0.000178227
2.27642e-06
0.000177634
3.30624e-06
0.000176849
4.56332e-06
0.000175874
6.11203e-06
0.000174744
8.03249e-06
0.000173549
1.04171e-05
0.000172481
1.33541e-05
0.000171889
1.68791e-05
0.000172306
2.08494e-05
2.46749e-05
0.000174132
0.000122154
-5.96075e-07
0.000122404
-1.127e-06
0.000122758
-1.58842e-06
0.000123205
-1.99594e-06
0.000123736
-2.36111e-06
0.000124342
-2.69141e-06
0.000125016
-2.99202e-06
0.000125753
-3.26699e-06
0.000126548
-3.51948e-06
0.000127395
-3.75199e-06
0.000128291
-3.96658e-06
0.000129232
-4.16495e-06
0.000130215
-4.34851e-06
0.000131236
-4.51847e-06
0.000132293
-4.67586e-06
0.000133382
-4.82154e-06
0.000134503
-4.95629e-06
0.000135651
-5.08074e-06
0.000136825
-5.19549e-06
0.000138023
-5.30101e-06
0.000139243
-5.39775e-06
0.000140483
-5.4861e-06
0.00014174
-5.56639e-06
0.000143014
-5.63893e-06
0.000144302
-5.70397e-06
0.000145604
-5.76176e-06
0.000146916
-5.8125e-06
0.000148238
-5.85638e-06
0.000149569
-5.89356e-06
0.000150906
-5.92419e-06
0.000152248
-5.94839e-06
0.000153594
-5.96627e-06
0.000154942
-5.97792e-06
0.000156292
-5.98342e-06
0.00015764
-5.98281e-06
0.000158987
-5.97616e-06
0.000160331
-5.96348e-06
0.00016167
-5.94478e-06
0.000163003
-5.92005e-06
0.000164329
-5.88926e-06
0.000165647
-5.85235e-06
0.000166954
-5.80927e-06
0.000168249
-5.75989e-06
0.000169532
-5.7041e-06
0.0001708
-5.64173e-06
0.000172053
-5.57259e-06
0.000173287
-5.49643e-06
0.000174503
-5.41297e-06
0.000175698
-5.32187e-06
0.000176871
-5.22272e-06
0.000178019
-5.11505e-06
0.000179141
-4.9983e-06
0.000180234
-4.8718e-06
0.000181297
-4.73478e-06
0.000182327
-4.58632e-06
0.000183321
-4.42534e-06
0.000184277
-4.25056e-06
0.000185192
-4.06045e-06
0.000186062
-3.8532e-06
0.000186883
-3.62666e-06
0.000187652
-3.37822e-06
0.000188363
-3.10475e-06
0.000189013
-2.80244e-06
0.000189595
-2.46668e-06
0.000190103
-2.09178e-06
0.000190531
-1.67078e-06
0.00019087
-1.19505e-06
0.000191114
-6.53861e-07
0.000191255
-3.40334e-08
0.000191284
6.81001e-07
0.000191196
1.51127e-06
0.000190991
2.48232e-06
0.000190672
3.62521e-06
0.000190258
4.97711e-06
0.000189789
6.58067e-06
0.00018934
8.48109e-06
0.000189039
1.07182e-05
0.000189085
1.33086e-05
0.000189753
1.62105e-05
0.000191345
1.9258e-05
2.20659e-05
0.000193954
0.000130705
-7.26881e-07
0.000130965
-1.38759e-06
0.000131338
-1.9605e-06
0.000131809
-2.46733e-06
0.000132369
-2.92155e-06
0.00013301
-3.3323e-06
0.000133724
-3.70605e-06
0.000134505
-4.04784e-06
0.000135347
-4.36161e-06
0.000136246
-4.65049e-06
0.000137196
-4.91704e-06
0.000138195
-5.16337e-06
0.000139238
-5.39127e-06
0.000140322
-5.60223e-06
0.000141443
-5.79753e-06
0.0001426
-5.97825e-06
0.000143789
-6.14535e-06
0.000145008
-6.29964e-06
0.000146255
-6.44182e-06
0.000147526
-6.57254e-06
0.000148821
-6.69231e-06
0.000150137
-6.80164e-06
0.000151471
-6.90093e-06
0.000152823
-6.99057e-06
0.00015419
-7.07087e-06
0.00015557
-7.14215e-06
0.000156963
-7.20466e-06
0.000158365
-7.25862e-06
0.000159776
-7.30426e-06
0.000161193
-7.34173e-06
0.000162616
-7.37121e-06
0.000164043
-7.39282e-06
0.000165472
-7.40668e-06
0.000166901
-7.4129e-06
0.00016833
-7.41153e-06
0.000169757
-7.40265e-06
0.000171179
-7.38628e-06
0.000172597
-7.36243e-06
0.000174008
-7.3311e-06
0.000175411
-7.29226e-06
0.000176805
-7.24585e-06
0.000178187
-7.19178e-06
0.000179558
-7.12993e-06
0.000180914
-7.06016e-06
0.000182254
-6.98227e-06
0.000183578
-6.89603e-06
0.000184882
-6.80116e-06
0.000186167
-6.69733e-06
0.000187429
-6.58413e-06
0.000188668
-6.46109e-06
0.00018988
-6.32766e-06
0.000191065
-6.18319e-06
0.00019222
-6.0269e-06
0.000193343
-5.8579e-06
0.000194432
-5.67513e-06
0.000195484
-5.47737e-06
0.000196497
-5.26315e-06
0.000197467
-5.03076e-06
0.000198392
-4.77819e-06
0.000199268
-4.50304e-06
0.000200093
-4.20247e-06
0.000200861
-3.87309e-06
0.000201569
-3.51089e-06
0.000202214
-3.11102e-06
0.00020279
-2.6677e-06
0.000203293
-2.17397e-06
0.000203719
-1.62146e-06
0.000204065
-1.00013e-06
0.000204329
-2.98006e-07
0.000204511
4.99039e-07
0.000204616
1.40705e-06
0.000204653
2.445e-06
0.000204644
3.63412e-06
0.000204624
4.99689e-06
0.00020465
6.55488e-06
0.000204806
8.32472e-06
0.000205214
1.03107e-05
0.00020603
1.24924e-05
0.000207434
1.48057e-05
0.000209576
1.7116e-05
1.91954e-05
0.000212447
0.000139854
-8.61507e-07
0.000140126
-1.65911e-06
0.000140515
-2.35019e-06
0.000141011
-2.96267e-06
0.000141601
-3.51185e-06
0.000142277
-4.00843e-06
0.000143031
-4.46021e-06
0.000143857
-4.87328e-06
0.000144748
-5.25239e-06
0.000145699
-5.60134e-06
0.000146705
-5.92324e-06
0.000147762
-6.22064e-06
0.000148867
-6.49571e-06
0.000150015
-6.75025e-06
0.000151203
-6.98581e-06
0.000152429
-7.20373e-06
0.000153689
-7.40514e-06
0.00015498
-7.59103e-06
0.000156301
-7.76226e-06
0.000157648
-7.9196e-06
0.000159019
-8.06369e-06
0.000160413
-8.19513e-06
0.000161826
-8.31441e-06
0.000163258
-8.42201e-06
0.000164705
-8.51831e-06
0.000166167
-8.60367e-06
0.000167641
-8.67842e-06
0.000169125
-8.74283e-06
0.000170618
-8.79715e-06
0.000172118
-8.84161e-06
0.000173623
-8.87638e-06
0.000175132
-8.90165e-06
0.000176643
-8.91755e-06
0.000178155
-8.9242e-06
0.000179665
-8.9217e-06
0.000181172
-8.91011e-06
0.000182676
-8.88948e-06
0.000184173
-8.85984e-06
0.000185663
-8.82119e-06
0.000187144
-8.77348e-06
0.000188615
-8.71667e-06
0.000190074
-8.65064e-06
0.00019152
-8.57529e-06
0.00019295
-8.49043e-06
0.000194364
-8.39586e-06
0.000195759
-8.29132e-06
0.000197134
-8.17649e-06
0.000198488
-8.05099e-06
0.000199818
-7.91439e-06
0.000201123
-7.76614e-06
0.000202401
-7.60564e-06
0.00020365
-7.43217e-06
0.000204868
-7.24487e-06
0.000206053
-7.04277e-06
0.000207203
-6.82471e-06
0.000208315
-6.58937e-06
0.000209387
-6.33518e-06
0.000210416
-6.06032e-06
0.000211401
-5.76268e-06
0.000212338
-5.43977e-06
0.000213224
-5.08869e-06
0.000214057
-4.70605e-06
0.000214834
-4.28788e-06
0.000215552
-3.82954e-06
0.00021621
-3.32558e-06
0.000216806
-2.76968e-06
0.000217339
-2.15451e-06
0.00021781
-1.47162e-06
0.000218224
-7.11398e-07
0.000218586
1.36877e-07
0.000218908
1.08436e-06
0.000219211
2.1424e-06
0.000219523
3.32251e-06
0.000219885
4.63436e-06
0.000220356
6.08353e-06
0.000221013
7.66813e-06
0.00022195
9.3739e-06
0.000223274
1.11677e-05
0.000225091
1.29895e-05
0.000227461
1.47452e-05
1.63066e-05
0.00023035
0.000149644
-1.00014e-06
0.000149926
-1.94139e-06
0.000150333
-2.75733e-06
0.000150852
-3.48182e-06
0.000151473
-4.13198e-06
0.000152184
-4.71993e-06
0.000152979
-5.25482e-06
0.000153849
-5.7438e-06
0.00015479
-6.19249e-06
0.000155794
-6.60538e-06
0.000156857
-6.98615e-06
0.000157974
-7.33785e-06
0.000159141
-7.66302e-06
0.000160355
-7.96383e-06
0.000161611
-8.24211e-06
0.000162907
-8.49944e-06
0.000164239
-8.73717e-06
0.000165605
-8.95649e-06
0.000167001
-9.15841e-06
0.000168425
-9.34383e-06
0.000169875
-9.51354e-06
0.000171348
-9.66822e-06
0.000172843
-9.80849e-06
0.000174356
-9.93488e-06
0.000175885
-1.00479e-05
0.00017743
-1.01479e-05
0.000178987
-1.02353e-05
0.000180554
-1.03105e-05
0.000182131
-1.03737e-05
0.000183715
-1.04252e-05
0.000185304
-1.04653e-05
0.000186896
-1.0494e-05
0.00018849
-1.05117e-05
0.000190085
-1.05185e-05
0.000191677
-1.05144e-05
0.000193267
-1.04995e-05
0.000194852
-1.0474e-05
0.00019643
-1.04379e-05
0.000198
-1.03911e-05
0.00019956
-1.03336e-05
0.000201109
-1.02655e-05
0.000202645
-1.01865e-05
0.000204166
-1.00965e-05
0.000205671
-9.99546e-06
0.000207158
-9.88303e-06
0.000208626
-9.75898e-06
0.000210072
-9.62295e-06
0.000211496
-9.47455e-06
0.000212895
-9.31331e-06
0.000214268
-9.13866e-06
0.000215612
-8.94994e-06
0.000216926
-8.74641e-06
0.000218208
-8.52716e-06
0.000219457
-8.29117e-06
0.000220669
-8.03727e-06
0.000221844
-7.76407e-06
0.000222979
-7.47001e-06
0.000224072
-7.15326e-06
0.000225121
-6.81172e-06
0.000226124
-6.44299e-06
0.00022708
-6.04431e-06
0.000227986
-5.61251e-06
0.000228842
-5.14398e-06
0.000229647
-4.63461e-06
0.000230401
-4.07975e-06
0.000231106
-3.47421e-06
0.000231764
-2.81223e-06
0.00023238
-2.08756e-06
0.000232962
-1.29356e-06
0.000233522
-4.23327e-07
0.000234077
5.29665e-07
0.000234649
1.57009e-06
0.00023527
2.70125e-06
0.000235981
3.92359e-06
0.000236832
5.23272e-06
0.000237882
6.61734e-06
0.0002392
8.05668e-06
0.000240849
9.51792e-06
0.000242884
1.09541e-05
0.000245325
1.23042e-05
1.34977e-05
0.000248134
0.000160119
-1.14298e-06
0.000160412
-2.23435e-06
0.000160837
-3.18182e-06
0.000161379
-4.02463e-06
0.000162029
-4.78184e-06
0.000162776
-5.46682e-06
0.000163612
-6.09002e-06
0.000164528
-6.65969e-06
0.000165517
-7.18232e-06
0.000166575
-7.66315e-06
0.000167696
-8.10645e-06
0.000168874
-8.51578e-06
0.000170105
-8.89411e-06
0.000171385
-9.24395e-06
0.00017271
-9.56747e-06
0.000174078
-9.8665e-06
0.000175483
-1.01426e-05
0.000176924
-1.03972e-05
0.000178397
-1.06315e-05
0.0001799
-1.08465e-05
0.00018143
-1.10431e-05
0.000182984
-1.12222e-05
0.00018456
-1.13844e-05
0.000186155
-1.15304e-05
0.000187768
-1.16608e-05
0.000189397
-1.1776e-05
0.000191038
-1.18765e-05
0.00019269
-1.19627e-05
0.000194351
-1.20349e-05
0.00019602
-1.20935e-05
0.000197693
-1.21388e-05
0.00019937
-1.21708e-05
0.000201049
-1.219e-05
0.000202727
-1.21964e-05
0.000204403
-1.21902e-05
0.000206075
-1.21715e-05
0.000207741
-1.21404e-05
0.000209401
-1.2097e-05
0.000211051
-1.20412e-05
0.00021269
-1.19731e-05
0.000214317
-1.18926e-05
0.000215931
-1.17996e-05
0.000217528
-1.16939e-05
0.000219108
-1.15755e-05
0.000220669
-1.14441e-05
0.00022221
-1.12993e-05
0.000223728
-1.11409e-05
0.000225222
-1.09685e-05
0.00022669
-1.07815e-05
0.000228131
-1.05794e-05
0.000229542
-1.03616e-05
0.000230923
-1.01272e-05
0.000232271
-9.8754e-06
0.000233585
-9.60518e-06
0.000234864
-9.31538e-06
0.000236104
-9.00467e-06
0.000237306
-8.67154e-06
0.000238467
-8.3143e-06
0.000239586
-7.93101e-06
0.000240662
-7.51949e-06
0.000241695
-7.07731e-06
0.000242685
-6.60175e-06
0.000243631
-6.08982e-06
0.000244534
-5.53822e-06
0.000245398
-4.94341e-06
0.000246225
-4.30164e-06
0.000247022
-3.60902e-06
0.000247796
-2.86169e-06
0.000248558
-2.05601e-06
0.000249324
-1.18879e-06
0.000250111
-2.57522e-07
0.000250943
7.38261e-07
0.000251848
1.79587e-06
0.000252862
2.91002e-06
0.000254023
4.07145e-06
0.000255374
5.26577e-06
0.000256959
6.4725e-06
0.000258812
7.66448e-06
0.000260958
8.80826e-06
0.000263396
9.86576e-06
1.07986e-05
0.000266095
0.000171328
-1.29026e-06
0.000171632
-2.53795e-06
0.000172073
-3.62355e-06
0.00017264
-4.59099e-06
0.000173319
-5.46129e-06
0.000174101
-6.249e-06
0.000174977
-6.9658e-06
0.000175939
-7.62103e-06
0.000176979
-8.22209e-06
0.00017809
-8.77496e-06
0.000179269
-9.28454e-06
0.000180508
-9.75492e-06
0.000181803
-1.01895e-05
0.000183151
-1.05913e-05
0.000184546
-1.09626e-05
0.000185985
-1.13057e-05
0.000187465
-1.16223e-05
0.000188982
-1.1914e-05
0.000190533
-1.21823e-05
0.000192115
-1.24284e-05
0.000193725
-1.26532e-05
0.000195361
-1.28578e-05
0.000197019
-1.30429e-05
0.000198699
-1.32094e-05
0.000200396
-1.33578e-05
0.000202108
-1.34887e-05
0.000203835
-1.36026e-05
0.000205572
-1.37001e-05
0.000207319
-1.37814e-05
0.000209072
-1.38471e-05
0.000210831
-1.38973e-05
0.000212593
-1.39325e-05
0.000214356
-1.39527e-05
0.000216118
-1.39583e-05
0.000217877
-1.39495e-05
0.000219632
-1.39262e-05
0.00022138
-1.38888e-05
0.000223121
-1.38373e-05
0.000224851
-1.37716e-05
0.00022657
-1.36918e-05
0.000228275
-1.35979e-05
0.000229966
-1.34898e-05
0.000231639
-1.33674e-05
0.000233294
-1.32306e-05
0.000234929
-1.3079e-05
0.000236543
-1.29125e-05
0.000238132
-1.27307e-05
0.000239697
-1.25332e-05
0.000241235
-1.23196e-05
0.000242745
-1.20892e-05
0.000244225
-1.18416e-05
0.000245674
-1.1576e-05
0.00024709
-1.12914e-05
0.000248472
-1.09871e-05
0.000249818
-1.06619e-05
0.000251129
-1.03147e-05
0.000252401
-9.94408e-06
0.000253635
-9.54857e-06
0.000254831
-9.12656e-06
0.000255988
-8.67624e-06
0.000257106
-8.19566e-06
0.000258187
-7.68274e-06
0.000259232
-7.13526e-06
0.000260245
-6.55095e-06
0.000261229
-5.92749e-06
0.00026219
-5.26268e-06
0.000263136
-4.5545e-06
0.000264075
-3.80131e-06
0.000265021
-3.0021e-06
0.000265989
-2.1567e-06
0.000266998
-1.26604e-06
0.000268068
-3.3218e-07
0.000269224
6.39927e-07
0.000270492
1.64219e-06
0.0002719
2.6633e-06
0.000273476
3.68955e-06
0.000275245
4.70359e-06
0.000277224
5.68504e-06
0.000279421
6.61135e-06
0.000281828
7.45935e-06
8.20823e-06
0.000284418
0.000183322
-1.44219e-06
0.000183636
-2.85218e-06
0.000184095
-4.08244e-06
0.000184685
-5.18071e-06
0.000185393
-6.17012e-06
0.000186211
-7.06627e-06
0.000187127
-7.88199e-06
0.000188134
-8.62769e-06
0.000189223
-9.31171e-06
0.000190389
-9.94079e-06
0.000191625
-1.05205e-05
0.000192926
-1.10554e-05
0.000194286
-1.15495e-05
0.000195701
-1.2006e-05
0.000197166
-1.24277e-05
0.000198678
-1.28172e-05
0.000200232
-1.31765e-05
0.000201825
-1.35073e-05
0.000203454
-1.38113e-05
0.000205116
-1.40899e-05
0.000206807
-1.43442e-05
0.000208525
-1.45754e-05
0.000210267
-1.47844e-05
0.000212029
-1.49721e-05
0.000213811
-1.51391e-05
0.000215608
-1.52861e-05
0.00021742
-1.54138e-05
0.000219242
-1.55227e-05
0.000221074
-1.56132e-05
0.000222913
-1.56858e-05
0.000224757
-1.57409e-05
0.000226603
-1.57787e-05
0.00022845
-1.57997e-05
0.000230296
-1.58039e-05
0.000232138
-1.57917e-05
0.000233975
-1.57633e-05
0.000235806
-1.57188e-05
0.000237627
-1.56582e-05
0.000239437
-1.55817e-05
0.000241234
-1.54894e-05
0.000243018
-1.53811e-05
0.000244785
-1.52569e-05
0.000246534
-1.51167e-05
0.000248264
-1.49603e-05
0.000249973
-1.47876e-05
0.000251658
-1.45983e-05
0.00025332
-1.43922e-05
0.000254956
-1.41689e-05
0.000256564
-1.39279e-05
0.000258144
-1.36689e-05
0.000259694
-1.33912e-05
0.000261212
-1.30943e-05
0.000262698
-1.27773e-05
0.00026415
-1.24395e-05
0.000265568
-1.20801e-05
0.000266952
-1.16979e-05
0.0002683
-1.12921e-05
0.000269612
-1.08613e-05
0.00027089
-1.04043e-05
0.000272134
-9.91997e-06
0.000273345
-9.40678e-06
0.000274526
-8.86343e-06
0.000275679
-8.28859e-06
0.000276809
-7.68103e-06
0.000277921
-7.03967e-06
0.000279022
-6.36375e-06
0.00028012
-5.65289e-06
0.000281226
-4.9073e-06
0.000282352
-4.12793e-06
0.000283512
-3.31671e-06
0.000284723
-2.47669e-06
0.000286003
-1.61218e-06
0.000287371
-7.28567e-07
0.000288847
1.66497e-07
0.000290447
1.0627e-06
0.000292189
1.94785e-06
0.000294085
2.80787e-06
0.000296141
3.62866e-06
0.000298357
4.39547e-06
0.000300722
5.0944e-06
5.71434e-06
0.000303216
0.000196155
-1.59891e-06
0.00019648
-3.17702e-06
0.000196956
-4.55833e-06
0.000197569
-5.79358e-06
0.000198307
-6.90801e-06
0.000199159
-7.91826e-06
0.000200115
-8.8382e-06
0.000201167
-9.67931e-06
0.000202306
-1.04508e-05
0.000203525
-1.11603e-05
0.000204819
-1.1814e-05
0.000206181
-1.24169e-05
0.000207605
-1.29737e-05
0.000209087
-1.34879e-05
0.000210622
-1.39627e-05
0.000212206
-1.4401e-05
0.000213835
-1.4805e-05
0.000215504
-1.51768e-05
0.000217211
-1.55182e-05
0.000218952
-1.58308e-05
0.000220724
-1.61159e-05
0.000222524
-1.63748e-05
0.000224348
-1.66085e-05
0.000226194
-1.68181e-05
0.000228059
-1.70043e-05
0.000229941
-1.71679e-05
0.000231837
-1.73096e-05
0.000233745
-1.743e-05
0.000235661
-1.75297e-05
0.000237585
-1.76091e-05
0.000239512
-1.76687e-05
0.000241443
-1.77089e-05
0.000243373
-1.773e-05
0.000245302
-1.77324e-05
0.000247226
-1.77162e-05
0.000249145
-1.76818e-05
0.000251056
-1.76293e-05
0.000252956
-1.75589e-05
0.000254845
-1.74707e-05
0.000256721
-1.73647e-05
0.000258581
-1.72411e-05
0.000260424
-1.70998e-05
0.000262248
-1.69408e-05
0.000264052
-1.6764e-05
0.000265834
-1.65693e-05
0.000267592
-1.63565e-05
0.000269325
-1.61254e-05
0.000271032
-1.58757e-05
0.000272711
-1.5607e-05
0.000274361
-1.53191e-05
0.000275982
-1.50114e-05
0.000277571
-1.46836e-05
0.000279129
-1.43349e-05
0.000280654
-1.39649e-05
0.000282147
-1.35728e-05
0.000283607
-1.3158e-05
0.000285035
-1.27198e-05
0.000286431
-1.22573e-05
0.000287796
-1.17698e-05
0.000289133
-1.12565e-05
0.000290443
-1.07168e-05
0.000291729
-1.015e-05
0.000292996
-9.55573e-06
0.000294249
-8.93365e-06
0.000295493
-8.28384e-06
0.000296736
-7.60672e-06
0.000297986
-6.90318e-06
0.000299254
-6.17476e-06
0.00030055
-5.4237e-06
0.000301886
-4.65311e-06
0.000303276
-3.86704e-06
0.000304735
-3.07057e-06
0.000306276
-2.26976e-06
0.000307914
-1.47155e-06
0.00030966
-6.83303e-07
0.000311522
8.58506e-08
0.000313504
8.25603e-07
0.000315607
1.52604e-06
0.000317824
2.17754e-06
0.000320147
2.77133e-06
3.30195e-06
0.00032256
0.000209887
-1.76053e-06
0.000210222
-3.51239e-06
0.000210715
-5.05099e-06
0.000211351
-6.42923e-06
0.000212117
-7.6745e-06
0.000213003
-8.80442e-06
0.000213999
-9.83382e-06
0.000215095
-1.07752e-05
0.000216283
-1.16388e-05
0.000217556
-1.24329e-05
0.000218906
-1.31643e-05
0.000220328
-1.38389e-05
0.000221816
-1.44615e-05
0.000223365
-1.50362e-05
0.000224969
-1.55668e-05
0.000226624
-1.60562e-05
0.000228326
-1.6507e-05
0.000230071
-1.69217e-05
0.000231855
-1.73021e-05
0.000233675
-1.76502e-05
0.000235526
-1.79673e-05
0.000237407
-1.82549e-05
0.000239313
-1.85143e-05
0.000241241
-1.87464e-05
0.000243189
-1.89523e-05
0.000245154
-1.91328e-05
0.000247134
-1.92887e-05
0.000249124
-1.94207e-05
0.000251124
-1.95295e-05
0.000253131
-1.96155e-05
0.000255142
-1.96793e-05
0.000257154
-1.97214e-05
0.000259167
-1.97422e-05
0.000261176
-1.9742e-05
0.000263182
-1.97212e-05
0.00026518
-1.96801e-05
0.00026717
-1.96188e-05
0.000269149
-1.95377e-05
0.000271115
-1.94369e-05
0.000273067
-1.93165e-05
0.000275002
-1.91766e-05
0.00027692
-1.90173e-05
0.000278818
-1.88387e-05
0.000280694
-1.86407e-05
0.000282548
-1.84232e-05
0.000284378
-1.81863e-05
0.000286183
-1.79297e-05
0.00028796
-1.76533e-05
0.00028971
-1.73569e-05
0.000291432
-1.70403e-05
0.000293123
-1.67032e-05
0.000294785
-1.63452e-05
0.000296416
-1.59661e-05
0.000298017
-1.55655e-05
0.000299587
-1.5143e-05
0.000301128
-1.46983e-05
0.000302639
-1.42309e-05
0.000304122
-1.37407e-05
0.00030558
-1.32272e-05
0.000307013
-1.26903e-05
0.000308427
-1.213e-05
0.000309823
-1.15464e-05
0.000311207
-1.09397e-05
0.000312584
-1.03106e-05
0.00031396
-9.65989e-06
0.000315342
-8.98899e-06
0.000316738
-8.29964e-06
0.000318158
-7.59416e-06
0.00031961
-6.87546e-06
0.000321104
-6.14712e-06
0.00032265
-5.4134e-06
0.000324258
-4.67923e-06
0.000325939
-3.95015e-06
0.000327699
-3.23224e-06
0.000329548
-2.53193e-06
0.00033149
-1.85579e-06
0.000333525
-1.20966e-06
0.000335651
-6.00013e-07
0.000337861
-3.24394e-08
0.000340145
4.87436e-07
9.57072e-07
0.00034249
0.00022458
-1.92707e-06
0.000224926
-3.85814e-06
0.000225435
-5.56003e-06
0.000226093
-7.08715e-06
0.000226887
-8.4689e-06
0.000227807
-9.72391e-06
0.000228841
-1.08679e-05
0.00022998
-1.19144e-05
0.000231216
-1.28745e-05
0.00023254
-1.37573e-05
0.000233946
-1.45703e-05
0.000235428
-1.53199e-05
0.000236978
-1.60115e-05
0.000238591
-1.66497e-05
0.000240263
-1.72386e-05
0.000241989
-1.77814e-05
0.000243763
-1.82812e-05
0.000245582
-1.87405e-05
0.000247441
-1.91616e-05
0.000249338
-1.95464e-05
0.000251267
-1.98967e-05
0.000253227
-2.02141e-05
0.000255212
-2.04998e-05
0.000257221
-2.07551e-05
0.00025925
-2.09812e-05
0.000261296
-2.11789e-05
0.000263357
-2.13491e-05
0.000265429
-2.14927e-05
0.00026751
-2.16104e-05
0.000269598
-2.17028e-05
0.000271689
-2.17705e-05
0.000273782
-2.18141e-05
0.000275874
-2.1834e-05
0.000277962
-2.18306e-05
0.000280046
-2.18044e-05
0.000282121
-2.17558e-05
0.000284188
-2.1685e-05
0.000286243
-2.15923e-05
0.000288284
-2.1478e-05
0.00029031
-2.13423e-05
0.000292319
-2.11854e-05
0.000294309
-2.10074e-05
0.000296279
-2.08084e-05
0.000298227
-2.05886e-05
0.000300151
-2.03479e-05
0.000302052
-2.00865e-05
0.000303926
-1.98043e-05
0.000305774
-1.95013e-05
0.000307595
-1.91775e-05
0.000309387
-1.88327e-05
0.000311151
-1.8467e-05
0.000312886
-1.80802e-05
0.000314593
-1.76723e-05
0.00031627
-1.72431e-05
0.00031792
-1.67927e-05
0.000319543
-1.63211e-05
0.00032114
-1.58282e-05
0.000322714
-1.53142e-05
0.000324266
-1.47793e-05
0.000325799
-1.42238e-05
0.000327317
-1.36483e-05
0.000328825
-1.30535e-05
0.000330325
-1.24403e-05
0.000331825
-1.18099e-05
0.000333329
-1.11639e-05
0.000334844
-1.05041e-05
0.000336377
-9.83271e-06
0.000337935
-9.15253e-06
0.000339526
-8.46664e-06
0.000341158
-7.77858e-06
0.000342837
-7.09232e-06
0.000344569
-6.41221e-06
0.000346362
-5.74288e-06
0.000348219
-5.08915e-06
0.000350143
-4.45591e-06
0.000352135
-3.84797e-06
0.000354195
-3.26981e-06
0.000356321
-2.72561e-06
0.000358507
-2.21877e-06
0.000360746
-1.7511e-06
-1.32382e-06
0.000363026
0.000240301
-2.09846e-06
0.000240657
-4.21398e-06
0.000241182
-6.08489e-06
0.000241862
-7.76654e-06
0.000242683
-9.29022e-06
0.000243635
-1.06756e-05
0.000244706
-1.19391e-05
0.000245887
-1.30954e-05
0.000247169
-1.41563e-05
0.000248544
-1.51318e-05
0.000250003
-1.603e-05
0.000251542
-1.6858e-05
0.000253152
-1.76217e-05
0.000254829
-1.83262e-05
0.000256566
-1.89758e-05
0.000258359
-1.95743e-05
0.000260203
-2.0125e-05
0.000262094
-2.06308e-05
0.000264026
-2.1094e-05
0.000265997
-2.15169e-05
0.000268002
-2.19015e-05
0.000270037
-2.22495e-05
0.0002721
-2.25623e-05
0.000274186
-2.28414e-05
0.000276293
-2.30879e-05
0.000278418
-2.3303e-05
0.000280557
-2.34877e-05
0.000282707
-2.36429e-05
0.000284866
-2.37693e-05
0.000287031
-2.38678e-05
0.0002892
-2.3939e-05
0.000291369
-2.39835e-05
0.000293537
-2.40019e-05
0.000295702
-2.39948e-05
0.00029786
-2.39625e-05
0.00030001
-2.39056e-05
0.000302149
-2.38245e-05
0.000304277
-2.37195e-05
0.00030639
-2.3591e-05
0.000308487
-2.34393e-05
0.000310566
-2.32646e-05
0.000312627
-2.30673e-05
0.000314666
-2.28475e-05
0.000316683