/*--------------------------------*- C++ -*----------------------------------*\
| =========                 |                                                 |
| \\      /  F ield         | OpenFOAM: The Open Source CFD Toolbox           |
|  \\    /   O peration     | Version:  2106                                  |
|   \\  /    A nd           | Website:  www.openfoam.com                      |
|    \\/     M anipulation  |                                                 |
\*---------------------------------------------------------------------------*/
FoamFile
{
    version     2.0;
    format      ascii;
    arch        "LSB;label=32;scalar=64";
    class       volScalarField;
    location    "9.4";
    object      T;
}
// * * * * * * * * * * * * * * * * * * * * * * * * * * * * * * * * * * * * * //

dimensions      [0 0 0 1 0 0 0];

internalField   nonuniform List<scalar> 
12013
(
300.004
300.011
300.019
300.027
300.035
300.044
300.053
300.062
300.072
300.082
300.093
300.104
300.115
300.126
300.138
300.151
300.164
300.177
300.191
300.205
300.219
300.234
300.25
300.266
300.282
300.299
300.317
300.335
300.353
300.372
300.392
300.412
300.433
300.455
300.477
300.499
300.523
300.547
300.571
300.596
300.623
300.649
300.677
300.705
300.734
300.764
300.795
300.826
300.859
300.892
300.926
300.962
300.998
301.035
301.073
301.113
301.153
301.195
301.238
301.283
301.328
301.376
301.424
301.474
301.526
301.58
301.636
301.693
301.753
301.816
301.881
301.948
302.02
302.094
302.174
302.258
302.348
302.446
302.555
302.678
302.825
300.004
300.011
300.019
300.027
300.035
300.044
300.053
300.062
300.072
300.082
300.093
300.104
300.115
300.126
300.138
300.151
300.164
300.177
300.191
300.205
300.219
300.234
300.25
300.266
300.282
300.299
300.317
300.335
300.353
300.372
300.392
300.412
300.433
300.455
300.477
300.499
300.523
300.546
300.571
300.596
300.622
300.649
300.677
300.705
300.734
300.764
300.795
300.826
300.859
300.892
300.926
300.961
300.998
301.035
301.073
301.113
301.153
301.195
301.238
301.282
301.328
301.375
301.424
301.474
301.526
301.579
301.635
301.692
301.752
301.814
301.879
301.946
302.017
302.092
302.17
302.253
302.342
302.438
302.542
302.657
302.783
300.004
300.011
300.019
300.027
300.035
300.044
300.053
300.062
300.072
300.082
300.093
300.104
300.115
300.126
300.138
300.151
300.164
300.177
300.191
300.205
300.219
300.234
300.25
300.266
300.282
300.299
300.317
300.335
300.353
300.372
300.392
300.412
300.433
300.455
300.477
300.499
300.522
300.546
300.571
300.596
300.622
300.649
300.677
300.705
300.734
300.764
300.794
300.826
300.858
300.892
300.926
300.961
300.997
301.034
301.073
301.112
301.153
301.194
301.237
301.281
301.327
301.374
301.422
301.472
301.524
301.577
301.633
301.69
301.749
301.811
301.875
301.942
302.012
302.085
302.162
302.243
302.329
302.421
302.518
302.621
302.729
300.004
300.011
300.019
300.027
300.035
300.044
300.053
300.062
300.072
300.082
300.093
300.104
300.115
300.126
300.138
300.151
300.164
300.177
300.191
300.205
300.219
300.234
300.25
300.266
300.282
300.299
300.317
300.335
300.353
300.372
300.392
300.412
300.433
300.454
300.476
300.499
300.522
300.546
300.571
300.596
300.622
300.649
300.676
300.705
300.734
300.763
300.794
300.826
300.858
300.891
300.925
300.96
300.997
301.034
301.072
301.111
301.152
301.193
301.236
301.28
301.325
301.372
301.42
301.47
301.522
301.575
301.629
301.686
301.745
301.806
301.869
301.935
302.004
302.075
302.15
302.228
302.31
302.396
302.486
302.578
302.671
300.004
300.011
300.019
300.027
300.035
300.044
300.053
300.062
300.072
300.082
300.093
300.104
300.115
300.126
300.138
300.151
300.164
300.177
300.191
300.205
300.219
300.234
300.25
300.266
300.282
300.299
300.317
300.335
300.353
300.372
300.392
300.412
300.433
300.454
300.476
300.499
300.522
300.546
300.571
300.596
300.622
300.649
300.676
300.704
300.733
300.763
300.794
300.825
300.857
300.89
300.925
300.96
300.996
301.033
301.071
301.11
301.15
301.192
301.234
301.278
301.323
301.37
301.418
301.467
301.518
301.57
301.625
301.681
301.739
301.799
301.861
301.925
301.992
302.061
302.133
302.208
302.285
302.365
302.447
302.53
302.612
300.004
300.011
300.019
300.027
300.035
300.044
300.053
300.062
300.072
300.082
300.093
300.104
300.115
300.126
300.138
300.151
300.164
300.177
300.191
300.205
300.219
300.234
300.25
300.266
300.282
300.299
300.317
300.335
300.353
300.372
300.392
300.412
300.433
300.454
300.476
300.499
300.522
300.546
300.57
300.596
300.622
300.648
300.676
300.704
300.733
300.762
300.793
300.824
300.856
300.889
300.923
300.958
300.994
301.031
301.069
301.108
301.148
301.189
301.232
301.275
301.32
301.366
301.414
301.462
301.513
301.565
301.618
301.673
301.73
301.789
301.85
301.912
301.977
302.044
302.112
302.183
302.255
302.329
302.404
302.479
302.553
300.004
300.011
300.019
300.027
300.035
300.044
300.053
300.062
300.072
300.082
300.093
300.104
300.115
300.126
300.138
300.151
300.164
300.177
300.191
300.205
300.219
300.234
300.25
300.266
300.282
300.299
300.317
300.334
300.353
300.372
300.392
300.412
300.433
300.454
300.476
300.498
300.522
300.545
300.57
300.595
300.621
300.648
300.675
300.703
300.732
300.761
300.792
300.823
300.855
300.888
300.922
300.957
300.992
301.029
301.067
301.106
301.145
301.186
301.228
301.271
301.316
301.361
301.408
301.457
301.506
301.557
301.61
301.664
301.719
301.777
301.835
301.896
301.958
302.022
302.087
302.154
302.221
302.29
302.358
302.426
302.493
300.004
300.011
300.019
300.027
300.035
300.044
300.053
300.062
300.072
300.082
300.093
300.104
300.115
300.126
300.138
300.151
300.164
300.177
300.19
300.205
300.219
300.234
300.25
300.266
300.282
300.299
300.316
300.334
300.353
300.372
300.391
300.412
300.432
300.454
300.475
300.498
300.521
300.545
300.569
300.595
300.62
300.647
300.674
300.702
300.731
300.76
300.791
300.822
300.854
300.886
300.92
300.955
300.99
301.027
301.064
301.102
301.142
301.182
301.224
301.267
301.31
301.355
301.402
301.449
301.498
301.548
301.599
301.652
301.706
301.761
301.818
301.876
301.936
301.996
302.058
302.12
302.183
302.247
302.31
302.372
302.433
300.004
300.011
300.019
300.027
300.035
300.044
300.053
300.062
300.072
300.082
300.093
300.104
300.115
300.126
300.138
300.151
300.164
300.177
300.19
300.205
300.219
300.234
300.249
300.265
300.282
300.299
300.316
300.334
300.353
300.372
300.391
300.411
300.432
300.453
300.475
300.498
300.521
300.544
300.569
300.594
300.62
300.646
300.673
300.701
300.73
300.759
300.789
300.82
300.852
300.884
300.918
300.952
300.987
301.024
301.061
301.099
301.138
301.178
301.219
301.261
301.304
301.348
301.394
301.44
301.488
301.537
301.587
301.638
301.69
301.744
301.798
301.854
301.91
301.967
302.025
302.084
302.143
302.201
302.259
302.317
302.373
300.004
300.011
300.019
300.027
300.035
300.044
300.053
300.062
300.072
300.082
300.093
300.104
300.115
300.126
300.138
300.151
300.163
300.177
300.19
300.204
300.219
300.234
300.249
300.265
300.282
300.299
300.316
300.334
300.352
300.371
300.391
300.411
300.431
300.453
300.475
300.497
300.52
300.544
300.568
300.593
300.618
300.645
300.672
300.7
300.728
300.757
300.787
300.818
300.849
300.882
300.915
300.949
300.984
301.02
301.056
301.094
301.132
301.172
301.212
301.254
301.296
301.339
301.384
301.429
301.476
301.523
301.572
301.621
301.671
301.723
301.775
301.828
301.881
301.935
301.99
302.045
302.099
302.154
302.207
302.26
302.312
300.004
300.011
300.019
300.027
300.035
300.044
300.053
300.062
300.072
300.082
300.093
300.103
300.115
300.126
300.138
300.151
300.163
300.177
300.19
300.204
300.219
300.234
300.249
300.265
300.281
300.298
300.316
300.334
300.352
300.371
300.39
300.41
300.431
300.452
300.474
300.496
300.519
300.543
300.567
300.592
300.617
300.643
300.67
300.698
300.726
300.755
300.785
300.815
300.847
300.879
300.912
300.945
300.98
301.015
301.051
301.088
301.126
301.165
301.205
301.245
301.287
301.329
301.372
301.417
301.462
301.508
301.554
301.602
301.65
301.699
301.749
301.799
301.85
301.901
301.952
302.003
302.054
302.104
302.154
302.203
302.251
300.004
300.011
300.019
300.027
300.035
300.044
300.053
300.062
300.072
300.082
300.093
300.103
300.115
300.126
300.138
300.151
300.163
300.176
300.19
300.204
300.219
300.234
300.249
300.265
300.281
300.298
300.315
300.333
300.352
300.37
300.39
300.41
300.43
300.451
300.473
300.495
300.518
300.542
300.566
300.59
300.616
300.642
300.668
300.696
300.724
300.753
300.782
300.812
300.843
300.875
300.907
300.941
300.975
301.009
301.045
301.081
301.119
301.157
301.195
301.235
301.276
301.317
301.359
301.402
301.445
301.49
301.535
301.58
301.626
301.673
301.72
301.768
301.815
301.863
301.911
301.959
302.006
302.053
302.099
302.145
302.19
300.004
300.011
300.019
300.027
300.035
300.044
300.053
300.062
300.072
300.082
300.093
300.103
300.115
300.126
300.138
300.15
300.163
300.176
300.19
300.204
300.218
300.233
300.249
300.265
300.281
300.298
300.315
300.333
300.351
300.37
300.389
300.409
300.429
300.45
300.472
300.494
300.517
300.54
300.564
300.589
300.614
300.64
300.666
300.693
300.721
300.75
300.779
300.809
300.839
300.87
300.902
300.935
300.969
301.003
301.038
301.073
301.11
301.147
301.185
301.224
301.263
301.303
301.344
301.385
301.427
301.47
301.513
301.556
301.6
301.645
301.689
301.734
301.779
301.824
301.868
301.913
301.957
302.001
302.044
302.086
302.128
300.004
300.011
300.019
300.027
300.035
300.044
300.053
300.062
300.072
300.082
300.092
300.103
300.114
300.126
300.138
300.15
300.163
300.176
300.19
300.204
300.218
300.233
300.248
300.264
300.28
300.297
300.314
300.332
300.35
300.369
300.388
300.408
300.429
300.449
300.471
300.493
300.515
300.539
300.562
300.587
300.612
300.637
300.664
300.69
300.718
300.746
300.775
300.804
300.834
300.865
300.897
300.929
300.962
300.995
301.029
301.064
301.1
301.136
301.173
301.21
301.248
301.287
301.326
301.366
301.406
301.447
301.488
301.53
301.572
301.614
301.656
301.698
301.74
301.782
301.824
301.866
301.907
301.947
301.988
302.027
302.066
300.004
300.011
300.019
300.027
300.035
300.044
300.053
300.062
300.072
300.082
300.092
300.103
300.114
300.126
300.138
300.15
300.163
300.176
300.19
300.203
300.218
300.233
300.248
300.264
300.28
300.297
300.314
300.332
300.35
300.368
300.388
300.407
300.427
300.448
300.469
300.491
300.514
300.537
300.56
300.584
300.609
300.634
300.66
300.687
300.714
300.742
300.77
300.799
300.829
300.859
300.89
300.922
300.954
300.986
301.02
301.054
301.088
301.124
301.159
301.195
301.232
301.269
301.307
301.345
301.384
301.423
301.462
301.501
301.541
301.58
301.62
301.66
301.699
301.739
301.778
301.817
301.855
301.893
301.93
301.967
302.003
300.004
300.011
300.019
300.027
300.035
300.044
300.053
300.062
300.072
300.082
300.092
300.103
300.114
300.126
300.138
300.15
300.163
300.176
300.189
300.203
300.218
300.232
300.248
300.263
300.279
300.296
300.313
300.331
300.349
300.367
300.386
300.406
300.426
300.447
300.468
300.49
300.512
300.534
300.558
300.582
300.606
300.631
300.657
300.683
300.71
300.737
300.765
300.793
300.822
300.852
300.882
300.913
300.945
300.976
301.009
301.042
301.075
301.109
301.144
301.179
301.214
301.25
301.286
301.323
301.359
301.396
301.433
301.471
301.508
301.545
301.583
301.62
301.657
301.694
301.731
301.767
301.803
301.838
301.873
301.907
301.941
300.004
300.011
300.019
300.027
300.035
300.044
300.053
300.062
300.072
300.082
300.092
300.103
300.114
300.126
300.137
300.15
300.162
300.175
300.189
300.203
300.217
300.232
300.247
300.263
300.279
300.295
300.312
300.33
300.348
300.366
300.385
300.405
300.425
300.445
300.466
300.487
300.509
300.532
300.555
300.579
300.603
300.627
300.653
300.678
300.705
300.731
300.759
300.787
300.815
300.844
300.874
300.904
300.934
300.965
300.997
301.029
301.061
301.094
301.127
301.161
301.195
301.229
301.263
301.298
301.333
301.368
301.403
301.438
301.473
301.509
301.544
301.579
301.613
301.648
301.682
301.716
301.749
301.782
301.815
301.847
301.878
300.004
300.011
300.019
300.027
300.035
300.044
300.053
300.062
300.072
300.082
300.092
300.103
300.114
300.125
300.137
300.149
300.162
300.175
300.189
300.202
300.217
300.231
300.246
300.262
300.278
300.295
300.311
300.329
300.347
300.365
300.384
300.403
300.423
300.443
300.464
300.485
300.507
300.529
300.552
300.575
300.599
300.623
300.648
300.673
300.699
300.725
300.752
300.779
300.807
300.835
300.864
300.893
300.923
300.953
300.983
301.014
301.045
301.077
301.109
301.141
301.173
301.206
301.239
301.272
301.305
301.338
301.371
301.404
301.437
301.47
301.503
301.536
301.569
301.601
301.633
301.664
301.696
301.726
301.757
301.787
301.816
300.004
300.011
300.019
300.027
300.035
300.044
300.053
300.062
300.072
300.082
300.092
300.103
300.114
300.125
300.137
300.149
300.162
300.175
300.188
300.202
300.216
300.231
300.246
300.261
300.277
300.294
300.31
300.328
300.345
300.363
300.382
300.401
300.421
300.441
300.461
300.482
300.504
300.526
300.548
300.571
300.594
300.618
300.642
300.667
300.692
300.718
300.744
300.771
300.798
300.825
300.853
300.881
300.91
300.939
300.968
300.998
301.028
301.058
301.089
301.119
301.15
301.181
301.212
301.244
301.275
301.306
301.338
301.369
301.4
301.431
301.462
301.493
301.523
301.553
301.583
301.612
301.642
301.67
301.699
301.727
301.754
300.004
300.011
300.019
300.027
300.035
300.044
300.053
300.062
300.071
300.081
300.092
300.102
300.113
300.125
300.137
300.149
300.161
300.174
300.188
300.201
300.215
300.23
300.245
300.26
300.276
300.292
300.309
300.326
300.344
300.362
300.38
300.399
300.418
300.438
300.458
300.479
300.5
300.522
300.544
300.566
300.589
300.612
300.636
300.66
300.685
300.71
300.736
300.761
300.788
300.814
300.841
300.868
300.896
300.924
300.952
300.981
301.009
301.038
301.067
301.096
301.126
301.155
301.185
301.214
301.244
301.273
301.303
301.332
301.362
301.391
301.42
301.448
301.477
301.505
301.533
301.56
301.588
301.614
301.641
301.667
301.692
300.004
300.011
300.019
300.027
300.035
300.043
300.052
300.062
300.071
300.081
300.092
300.102
300.113
300.125
300.136
300.148
300.161
300.174
300.187
300.201
300.215
300.229
300.244
300.259
300.275
300.291
300.308
300.325
300.342
300.36
300.378
300.397
300.416
300.435
300.455
300.475
300.496
300.517
300.539
300.561
300.583
300.606
300.629
300.653
300.677
300.701
300.726
300.751
300.776
300.802
300.828
300.854
300.881
300.908
300.935
300.962
300.989
301.017
301.045
301.072
301.1
301.128
301.156
301.184
301.212
301.24
301.267
301.295
301.322
301.35
301.377
301.403
301.43
301.456
301.482
301.508
301.534
301.559
301.583
301.608
301.632
300.004
300.011
300.019
300.027
300.035
300.043
300.052
300.062
300.071
300.081
300.091
300.102
300.113
300.124
300.136
300.148
300.16
300.173
300.186
300.2
300.214
300.228
300.243
300.258
300.274
300.29
300.306
300.323
300.34
300.357
300.375
300.394
300.413
300.432
300.451
300.471
300.492
300.512
300.534
300.555
300.577
300.599
300.622
300.645
300.668
300.692
300.716
300.74
300.764
300.789
300.814
300.839
300.865
300.89
300.916
300.942
300.968
300.995
301.021
301.047
301.074
301.1
301.126
301.153
301.179
301.205
301.231
301.257
301.283
301.308
301.333
301.358
301.383
301.408
301.432
301.456
301.48
301.503
301.526
301.549
301.571
300.004
300.011
300.019
300.026
300.035
300.043
300.052
300.061
300.071
300.081
300.091
300.102
300.112
300.124
300.135
300.147
300.16
300.172
300.186
300.199
300.213
300.227
300.242
300.257
300.272
300.288
300.304
300.321
300.338
300.355
300.373
300.391
300.409
300.428
300.447
300.467
300.487
300.507
300.528
300.549
300.57
300.592
300.614
300.636
300.659
300.681
300.704
300.728
300.751
300.775
300.799
300.823
300.848
300.872
300.897
300.922
300.946
300.971
300.996
301.021
301.046
301.071
301.096
301.121
301.145
301.17
301.194
301.218
301.243
301.266
301.29
301.314
301.337
301.36
301.383
301.405
301.427
301.449
301.47
301.492
301.513
300.004
300.011
300.018
300.026
300.035
300.043
300.052
300.061
300.071
300.081
300.091
300.101
300.112
300.123
300.135
300.147
300.159
300.172
300.185
300.198
300.212
300.226
300.24
300.255
300.27
300.286
300.302
300.318
300.335
300.352
300.37
300.387
300.405
300.424
300.443
300.462
300.481
300.501
300.521
300.542
300.563
300.584
300.605
300.626
300.648
300.67
300.693
300.715
300.738
300.761
300.784
300.807
300.83
300.853
300.877
300.9
300.924
300.947
300.971
300.994
301.018
301.041
301.065
301.088
301.111
301.134
301.157
301.18
301.203
301.225
301.247
301.269
301.291
301.312
301.333
301.354
301.375
301.395
301.416
301.435
301.455
300.004
300.011
300.018
300.026
300.034
300.043
300.052
300.061
300.07
300.08
300.09
300.101
300.112
300.123
300.134
300.146
300.158
300.171
300.184
300.197
300.211
300.225
300.239
300.254
300.269
300.284
300.3
300.316
300.332
300.349
300.366
300.384
300.401
300.419
300.438
300.457
300.476
300.495
300.515
300.534
300.554
300.575
300.595
300.616
300.637
300.659
300.68
300.702
300.723
300.745
300.767
300.789
300.811
300.834
300.856
300.878
300.901
300.923
300.945
300.967
300.99
301.012
301.034
301.056
301.077
301.099
301.121
301.142
301.163
301.184
301.205
301.225
301.246
301.266
301.285
301.305
301.324
301.343
301.362
301.381
301.399
300.004
300.011
300.018
300.026
300.034
300.043
300.052
300.061
300.07
300.08
300.09
300.1
300.111
300.122
300.134
300.145
300.157
300.17
300.183
300.196
300.209
300.223
300.237
300.252
300.267
300.282
300.297
300.313
300.329
300.346
300.362
300.38
300.397
300.415
300.433
300.451
300.469
300.488
300.507
300.526
300.546
300.566
300.586
300.606
300.626
300.646
300.667
300.688
300.708
300.729
300.75
300.771
300.793
300.814
300.835
300.856
300.877
300.898
300.919
300.94
300.961
300.982
301.003
301.023
301.044
301.064
301.084
301.104
301.124
301.144
301.163
301.182
301.202
301.22
301.239
301.257
301.275
301.293
301.311
301.328
301.345
300.004
300.011
300.018
300.026
300.034
300.043
300.051
300.06
300.07
300.079
300.089
300.1
300.11
300.121
300.133
300.144
300.156
300.169
300.181
300.194
300.208
300.221
300.235
300.25
300.264
300.279
300.295
300.31
300.326
300.342
300.359
300.375
300.392
300.41
300.427
300.445
300.463
300.481
300.5
300.518
300.537
300.556
300.575
300.595
300.614
300.634
300.654
300.673
300.693
300.713
300.733
300.753
300.773
300.794
300.814
300.834
300.854
300.874
300.894
300.913
300.933
300.953
300.972
300.992
301.011
301.03
301.049
301.068
301.086
301.105
301.123
301.141
301.159
301.176
301.194
301.211
301.228
301.245
301.261
301.277
301.293
300.004
300.011
300.018
300.026
300.034
300.042
300.051
300.06
300.069
300.079
300.089
300.099
300.11
300.121
300.132
300.144
300.155
300.168
300.18
300.193
300.206
300.22
300.233
300.248
300.262
300.277
300.292
300.307
300.323
300.338
300.354
300.371
300.387
300.404
300.421
300.439
300.456
300.474
300.492
300.51
300.528
300.546
300.565
300.583
300.602
300.621
300.64
300.659
300.678
300.697
300.716
300.735
300.754
300.773
300.793
300.812
300.831
300.849
300.868
300.887
300.906
300.924
300.943
300.961
300.979
300.997
301.015
301.033
301.05
301.067
301.084
301.101
301.118
301.135
301.151
301.167
301.183
301.199
301.214
301.229
301.244
300.004
300.011
300.018
300.026
300.034
300.042
300.051
300.06
300.069
300.079
300.088
300.099
300.109
300.12
300.131
300.143
300.154
300.166
300.179
300.192
300.205
300.218
300.231
300.245
300.259
300.274
300.289
300.304
300.319
300.334
300.35
300.366
300.382
300.399
300.415
300.432
300.449
300.466
300.484
300.501
300.519
300.536
300.554
300.572
300.59
300.608
300.626
300.645
300.663
300.681
300.699
300.717
300.736
300.754
300.772
300.79
300.808
300.826
300.844
300.862
300.879
300.897
300.914
300.931
300.948
300.965
300.982
300.999
301.015
301.032
301.048
301.064
301.079
301.095
301.11
301.125
301.14
301.155
301.17
301.184
301.198
300.003
300.011
300.018
300.026
300.034
300.042
300.051
300.059
300.069
300.078
300.088
300.098
300.108
300.119
300.13
300.142
300.153
300.165
300.177
300.19
300.203
300.216
300.229
300.243
300.257
300.271
300.286
300.3
300.315
300.33
300.346
300.361
300.377
300.393
300.409
300.426
300.442
300.459
300.476
300.492
300.509
300.527
300.544
300.561
300.578
300.596
300.613
300.631
300.648
300.665
300.683
300.7
300.718
300.735
300.752
300.769
300.786
300.803
300.82
300.837
300.854
300.871
300.887
300.903
300.919
300.936
300.951
300.967
300.983
300.998
301.013
301.028
301.043
301.058
301.072
301.087
301.101
301.115
301.128
301.142
301.155
300.003
300.011
300.018
300.026
300.033
300.042
300.05
300.059
300.068
300.078
300.087
300.097
300.108
300.118
300.129
300.141
300.152
300.164
300.176
300.188
300.201
300.214
300.227
300.241
300.254
300.268
300.282
300.297
300.311
300.326
300.341
300.357
300.372
300.388
300.403
300.419
300.435
300.451
300.468
300.484
300.5
300.517
300.534
300.55
300.567
300.584
300.6
300.617
300.634
300.65
300.667
300.684
300.7
300.717
300.733
300.75
300.766
300.782
300.798
300.814
300.83
300.846
300.862
300.877
300.893
300.908
300.923
300.938
300.952
300.967
300.981
300.996
301.01
301.024
301.037
301.051
301.064
301.077
301.09
301.103
301.116
300.003
300.01
300.018
300.025
300.033
300.041
300.05
300.059
300.068
300.077
300.087
300.097
300.107
300.118
300.128
300.139
300.151
300.163
300.174
300.187
300.199
300.212
300.225
300.238
300.252
300.265
300.279
300.293
300.308
300.322
300.337
300.352
300.367
300.382
300.398
300.413
300.429
300.444
300.46
300.476
300.492
300.508
300.524
300.54
300.556
300.572
300.588
300.604
300.62
300.636
300.652
300.668
300.684
300.7
300.716
300.732
300.747
300.763
300.778
300.793
300.809
300.824
300.839
300.853
300.868
300.882
300.897
300.911
300.925
300.939
300.953
300.966
300.979
300.993
301.006
301.019
301.031
301.044
301.056
301.068
301.08
300.003
300.01
300.018
300.025
300.033
300.041
300.05
300.058
300.067
300.077
300.086
300.096
300.106
300.117
300.127
300.138
300.15
300.161
300.173
300.185
300.197
300.21
300.223
300.236
300.249
300.263
300.276
300.29
300.304
300.319
300.333
300.348
300.362
300.377
300.392
300.407
300.422
300.438
300.453
300.468
300.484
300.499
300.515
300.53
300.546
300.562
300.577
300.593
300.608
300.624
300.639
300.654
300.67
300.685
300.7
300.715
300.73
300.745
300.76
300.775
300.789
300.804
300.818
300.832
300.846
300.86
300.874
300.887
300.901
300.914
300.927
300.94
300.953
300.965
300.978
300.99
301.002
301.014
301.026
301.038
301.049
300.003
300.01
300.018
300.025
300.033
300.041
300.049
300.058
300.067
300.076
300.086
300.095
300.105
300.116
300.126
300.137
300.149
300.16
300.172
300.184
300.196
300.208
300.221
300.234
300.247
300.26
300.274
300.287
300.301
300.315
300.329
300.343
300.358
300.372
300.387
300.402
300.417
300.432
300.446
300.462
300.477
300.492
300.507
300.522
300.537
300.552
300.567
300.582
300.597
300.612
300.627
300.642
300.657
300.672
300.686
300.701
300.715
300.73
300.744
300.758
300.772
300.786
300.8
300.813
300.827
300.84
300.854
300.867
300.88
300.892
300.905
300.917
300.93
300.942
300.954
300.966
300.977
300.989
301
301.011
301.022
300.003
300.01
300.017
300.025
300.033
300.041
300.049
300.058
300.066
300.076
300.085
300.095
300.105
300.115
300.126
300.136
300.147
300.159
300.17
300.182
300.194
300.207
300.219
300.232
300.245
300.258
300.271
300.285
300.298
300.312
300.326
300.34
300.354
300.368
300.383
300.397
300.412
300.426
300.441
300.456
300.47
300.485
300.5
300.515
300.529
300.544
300.559
300.574
300.588
300.603
300.617
300.632
300.646
300.66
300.675
300.689
300.703
300.717
300.731
300.744
300.758
300.771
300.785
300.798
300.811
300.824
300.837
300.849
300.862
300.874
300.887
300.899
300.911
300.922
300.934
300.945
300.957
300.968
300.979
300.99
301
300.003
300.01
300.017
300.025
300.032
300.04
300.049
300.057
300.066
300.075
300.085
300.094
300.104
300.114
300.125
300.136
300.147
300.158
300.169
300.181
300.193
300.205
300.217
300.23
300.243
300.256
300.269
300.282
300.296
300.309
300.323
300.337
300.351
300.365
300.379
300.393
300.408
300.422
300.436
300.451
300.465
300.48
300.494
300.509
300.523
300.538
300.552
300.566
300.581
300.595
300.609
300.623
300.637
300.651
300.665
300.679
300.693
300.707
300.72
300.733
300.747
300.76
300.773
300.786
300.798
300.811
300.824
300.836
300.848
300.86
300.872
300.884
300.896
300.907
300.918
300.93
300.941
300.951
300.962
300.973
300.983
300.003
300.01
300.017
300.025
300.032
300.04
300.048
300.057
300.066
300.075
300.084
300.094
300.104
300.114
300.124
300.135
300.146
300.157
300.168
300.18
300.192
300.204
300.216
300.229
300.241
300.254
300.267
300.28
300.294
300.307
300.321
300.334
300.348
300.362
300.376
300.39
300.404
300.419
300.433
300.447
300.461
300.476
300.49
300.504
300.518
300.533
300.547
300.561
300.575
300.589
300.603
300.617
300.631
300.645
300.658
300.672
300.685
300.699
300.712
300.725
300.738
300.751
300.764
300.777
300.789
300.802
300.814
300.826
300.838
300.85
300.862
300.873
300.885
300.896
300.907
300.918
300.929
300.939
300.95
300.96
300.971
300.003
300.01
300.017
300.025
300.032
300.04
300.048
300.057
300.065
300.074
300.084
300.093
300.103
300.113
300.124
300.134
300.145
300.156
300.168
300.179
300.191
300.203
300.215
300.228
300.24
300.253
300.266
300.279
300.292
300.306
300.319
300.333
300.347
300.36
300.374
300.388
300.402
300.416
300.43
300.445
300.459
300.473
300.487
300.501
300.515
300.529
300.543
300.557
300.571
300.585
300.599
300.613
300.627
300.64
300.654
300.667
300.681
300.694
300.707
300.72
300.733
300.746
300.758
300.771
300.783
300.796
300.808
300.82
300.832
300.843
300.855
300.866
300.878
300.889
300.9
300.911
300.921
300.932
300.942
300.952
300.963
300.003
300.01
300.017
300.024
300.032
300.04
300.048
300.057
300.065
300.074
300.084
300.093
300.103
300.113
300.123
300.134
300.145
300.156
300.167
300.179
300.191
300.203
300.215
300.227
300.24
300.252
300.265
300.278
300.292
300.305
300.318
300.332
300.346
300.359
300.373
300.387
300.401
300.415
300.429
300.443
300.457
300.471
300.485
300.499
300.514
300.528
300.542
300.556
300.569
300.583
300.597
300.611
300.624
300.638
300.651
300.665
300.678
300.691
300.704
300.717
300.73
300.743
300.755
300.768
300.78
300.792
300.804
300.816
300.828
300.84
300.851
300.863
300.874
300.885
300.896
300.907
300.917
300.928
300.938
300.948
300.958
300.003
300.01
300.017
300.024
300.032
300.04
300.048
300.056
300.065
300.074
300.083
300.093
300.103
300.113
300.123
300.134
300.145
300.156
300.167
300.178
300.19
300.202
300.214
300.227
300.239
300.252
300.265
300.278
300.291
300.304
300.318
300.331
300.345
300.359
300.373
300.387
300.401
300.415
300.429
300.443
300.457
300.471
300.485
300.499
300.513
300.527
300.541
300.555
300.569
300.583
300.596
300.61
300.624
300.637
300.651
300.664
300.677
300.69
300.703
300.716
300.729
300.742
300.754
300.767
300.779
300.791
300.803
300.815
300.827
300.839
300.85
300.862
300.873
300.884
300.895
300.906
300.916
300.927
300.937
300.947
300.957
300.003
300.01
300.017
300.024
300.032
300.04
300.048
300.056
300.065
300.074
300.083
300.093
300.103
300.113
300.123
300.134
300.144
300.156
300.167
300.178
300.19
300.202
300.214
300.227
300.239
300.252
300.265
300.278
300.291
300.304
300.318
300.331
300.345
300.359
300.373
300.387
300.4
300.414
300.429
300.443
300.457
300.471
300.485
300.499
300.513
300.527
300.541
300.555
300.569
300.583
300.596
300.61
300.624
300.637
300.651
300.664
300.677
300.691
300.704
300.717
300.729
300.742
300.755
300.767
300.78
300.792
300.804
300.816
300.828
300.839
300.851
300.862
300.873
300.884
300.895
300.906
300.917
300.927
300.938
300.948
300.958
303.02
303.149
303.226
303.299
303.362
303.413
303.448
303.488
303.528
303.565
303.596
303.631
303.665
303.699
303.733
303.766
303.797
303.825
303.854
303.884
303.913
303.942
303.972
304.001
304.03
304.058
304.086
304.114
304.142
304.169
304.196
304.223
304.249
304.275
304.301
304.326
304.352
304.377
304.402
304.427
304.452
304.475
304.501
304.528
304.554
304.58
304.603
304.628
304.654
304.679
304.704
304.726
304.75
304.775
304.801
304.826
304.852
304.878
304.904
304.927
304.948
304.971
304.995
305.019
305.044
305.069
305.093
305.118
305.142
305.166
305.191
305.214
305.238
305.262
305.285
305.309
305.332
305.355
305.378
305.403
305.431
305.457
305.48
305.503
305.525
305.546
305.57
305.598
305.623
305.645
305.665
305.69
305.717
305.739
305.765
305.792
305.818
305.84
305.867
305.891
305.913
305.938
305.96
305.984
306.011
306.04
306.065
306.085
306.11
306.131
306.156
306.182
306.21
306.239
306.264
306.284
306.309
306.336
306.363
306.387
306.406
306.43
306.455
306.48
306.505
306.523
306.545
306.567
306.591
306.614
306.636
306.657
306.677
306.696
306.714
306.731
306.747
306.762
306.775
306.786
306.796
306.804
306.811
306.815
306.817
306.817
306.814
306.808
306.799
306.786
306.768
306.746
306.723
306.694
306.659
306.618
306.573
306.493
306.418
306.322
306.197
302.919
303.032
303.121
303.196
303.261
303.316
303.362
303.406
303.448
303.487
303.523
303.559
303.595
303.63
303.665
303.698
303.73
303.761
303.791
303.822
303.852
303.882
303.912
303.941
303.971
304
304.028
304.056
304.084
304.112
304.139
304.167
304.193
304.22
304.246
304.272
304.298
304.324
304.349
304.375
304.4
304.425
304.45
304.477
304.503
304.528
304.553
304.578
304.604
304.629
304.654
304.678
304.702
304.727
304.753
304.778
304.804
304.83
304.855
304.879
304.901
304.925
304.949
304.973
304.998
305.023
305.047
305.072
305.097
305.121
305.145
305.169
305.193
305.217
305.241
305.265
305.288
305.312
305.335
305.361
305.387
305.413
305.437
305.461
305.483
305.505
305.53
305.556
305.581
305.604
305.626
305.65
305.676
305.7
305.726
305.752
305.778
305.801
305.827
305.852
305.875
305.9
305.923
305.948
305.974
306.002
306.027
306.049
306.074
306.096
306.121
306.147
306.175
306.203
306.228
306.25
306.275
306.302
306.329
306.353
306.374
306.397
306.423
306.448
306.472
306.492
306.514
306.537
306.56
306.583
306.605
306.627
306.647
306.667
306.685
306.703
306.719
306.733
306.747
306.759
306.769
306.777
306.784
306.788
306.79
306.79
306.787
306.781
306.772
306.759
306.741
306.72
306.695
306.666
306.631
306.588
306.539
306.462
306.383
306.282
306.145
302.837
302.936
303.022
303.097
303.164
303.222
303.273
303.321
303.365
303.407
303.446
303.484
303.521
303.558
303.593
303.628
303.661
303.693
303.725
303.756
303.787
303.817
303.848
303.878
303.908
303.937
303.966
303.995
304.024
304.052
304.08
304.107
304.134
304.161
304.188
304.215
304.241
304.267
304.293