/*--------------------------------*- C++ -*----------------------------------*\
| =========                 |                                                 |
| \\      /  F ield         | OpenFOAM: The Open Source CFD Toolbox           |
|  \\    /   O peration     | Version:  2106                                  |
|   \\  /    A nd           | Website:  www.openfoam.com                      |
|    \\/     M anipulation  |                                                 |
\*---------------------------------------------------------------------------*/
FoamFile
{
    version     2.0;
    format      ascii;
    arch        "LSB;label=32;scalar=64";
    class       volVectorField;
    location    "9.4";
    object      U;
}
// * * * * * * * * * * * * * * * * * * * * * * * * * * * * * * * * * * * * * //

dimensions      [0 1 -1 0 0 0 0];

internalField   nonuniform List<vector> 
12013
(
(0.10004 -1.11538e-05 0)
(0.100204 -2.06635e-05 0)
(0.10047 -2.95117e-05 0)
(0.100814 -3.7695e-05 0)
(0.10123 -4.54018e-05 0)
(0.10171 -5.27381e-05 0)
(0.10225 -5.97708e-05 0)
(0.102843 -6.65536e-05 0)
(0.103486 -7.31268e-05 0)
(0.104175 -7.9522e-05 0)
(0.104905 -8.57643e-05 0)
(0.105674 -9.18739e-05 0)
(0.10648 -9.78667e-05 0)
(0.107318 -0.000103757 0)
(0.108188 -0.000109555 0)
(0.109086 -0.000115268 0)
(0.11001 -0.000120906 0)
(0.11096 -0.000126471 0)
(0.111932 -0.000131969 0)
(0.112925 -0.000137401 0)
(0.113937 -0.000142771 0)
(0.114967 -0.000148078 0)
(0.116014 -0.000153322 0)
(0.117075 -0.000158503 0)
(0.118149 -0.000163619 0)
(0.119236 -0.000168667 0)
(0.120333 -0.000173645 0)
(0.121439 -0.000178549 0)
(0.122554 -0.000183375 0)
(0.123675 -0.000188117 0)
(0.124803 -0.00019277 0)
(0.125934 -0.000197328 0)
(0.12707 -0.000201784 0)
(0.128207 -0.00020613 0)
(0.129345 -0.000210356 0)
(0.130484 -0.000214455 0)
(0.131621 -0.000218413 0)
(0.132756 -0.000222222 0)
(0.133888 -0.000225866 0)
(0.135015 -0.000229332 0)
(0.136136 -0.000232604 0)
(0.137251 -0.000235665 0)
(0.138358 -0.000238493 0)
(0.139456 -0.000241067 0)
(0.140543 -0.000243363 0)
(0.141619 -0.000245353 0)
(0.142682 -0.000247004 0)
(0.14373 -0.000248282 0)
(0.144763 -0.000249146 0)
(0.145779 -0.00024955 0)
(0.146776 -0.00024944 0)
(0.147753 -0.000248756 0)
(0.148707 -0.000247425 0)
(0.149638 -0.000245367 0)
(0.150541 -0.000242484 0)
(0.151416 -0.000238662 0)
(0.15226 -0.000233766 0)
(0.15307 -0.000227635 0)
(0.153841 -0.000220074 0)
(0.154572 -0.000210849 0)
(0.155256 -0.00019967 0)
(0.15589 -0.000186182 0)
(0.156467 -0.000169941 0)
(0.156981 -0.000150387 0)
(0.157423 -0.000126802 0)
(0.157783 -9.82596e-05 0)
(0.158048 -6.35404e-05 0)
(0.158205 -2.10157e-05 0)
(0.158232 3.15407e-05 0)
(0.158106 9.72887e-05 0)
(0.157793 0.000180759 0)
(0.157251 0.000288616 0)
(0.156419 0.000430983 0)
(0.155211 0.000623748 0)
(0.153504 0.000892724 0)
(0.151112 0.00128136 0)
(0.147746 0.00186558 0)
(0.142924 0.00278626 0)
(0.135839 0.00434887 0)
(0.125368 0.00745553 0)
(0.113342 0.0163677 0)
(0.100037 -3.40557e-05 0)
(0.1002 -6.33538e-05 0)
(0.100465 -9.0528e-05 0)
(0.100808 -0.000115642 0)
(0.101223 -0.000139295 0)
(0.101702 -0.000161808 0)
(0.102241 -0.000183388 0)
(0.102834 -0.000204198 0)
(0.103476 -0.000224365 0)
(0.104163 -0.000243984 0)
(0.104892 -0.000263132 0)
(0.10566 -0.000281872 0)
(0.106464 -0.000300254 0)
(0.107302 -0.000318319 0)
(0.10817 -0.000336099 0)
(0.109067 -0.000353621 0)
(0.10999 -0.000370907 0)
(0.110938 -0.000387972 0)
(0.111909 -0.000404828 0)
(0.112901 -0.000421484 0)
(0.113912 -0.000437945 0)
(0.11494 -0.000454214 0)
(0.115985 -0.000470289 0)
(0.117045 -0.000486169 0)
(0.118117 -0.000501848 0)
(0.119202 -0.00051732 0)
(0.120298 -0.000532575 0)
(0.121402 -0.000547602 0)
(0.122515 -0.000562388 0)
(0.123635 -0.000576917 0)
(0.12476 -0.000591173 0)
(0.12589 -0.000605136 0)
(0.127023 -0.000618784 0)
(0.128159 -0.000632094 0)
(0.129295 -0.000645039 0)
(0.130431 -0.000657588 0)
(0.131566 -0.000669711 0)
(0.132699 -0.00068137 0)
(0.133828 -0.000692527 0)
(0.134953 -0.000703136 0)
(0.136072 -0.00071315 0)
(0.137185 -0.000722513 0)
(0.138289 -0.000731166 0)
(0.139384 -0.000739041 0)
(0.140469 -0.000746061 0)
(0.141542 -0.000752143 0)
(0.142602 -0.000757189 0)
(0.143648 -0.000761091 0)
(0.144679 -0.000763726 0)
(0.145692 -0.000764951 0)
(0.146686 -0.000764605 0)
(0.14766 -0.000762501 0)
(0.148612 -0.000758423 0)
(0.14954 -0.000752119 0)
(0.150442 -0.000743295 0)
(0.151314 -0.000731604 0)
(0.152156 -0.000716635 0)
(0.152964 -0.000697898 0)
(0.153734 -0.000674804 0)
(0.154463 -0.000646638 0)
(0.155147 -0.000612529 0)
(0.155781 -0.000571401 0)
(0.156359 -0.000521914 0)
(0.156875 -0.00046238 0)
(0.157321 -0.000390648 0)
(0.157687 -0.000303942 0)
(0.157962 -0.000198626 0)
(0.158131 -6.98649e-05 0)
(0.158178 8.88859e-05 0)
(0.158079 0.000286768 0)
(0.157807 0.000536768 0)
(0.157324 0.000857732 0)
(0.156581 0.00127774 0)
(0.155513 0.00183979 0)
(0.15403 0.00261148 0)
(0.15201 0.00370173 0)
(0.14929 0.00528887 0)
(0.145643 0.0076678 0)
(0.140793 0.0113306 0)
(0.134751 0.0170098 0)
(0.129863 0.0251248 0)
(0.100034 -5.78864e-05 0)
(0.100195 -0.000108671 0)
(0.100457 -0.000155474 0)
(0.100798 -0.000198715 0)
(0.101211 -0.000239432 0)
(0.101689 -0.00027818 0)
(0.102225 -0.000315316 0)
(0.102816 -0.000351125 0)
(0.103455 -0.000385823 0)
(0.10414 -0.000419576 0)
(0.104868 -0.000452517 0)
(0.105633 -0.000484753 0)
(0.106435 -0.000516371 0)
(0.10727 -0.000547442 0)
(0.108136 -0.000578021 0)
(0.10903 -0.000608156 0)
(0.109951 -0.00063788 0)
(0.110896 -0.000667224 0)
(0.111864 -0.000696206 0)
(0.112853 -0.000724843 0)
(0.113861 -0.000753141 0)
(0.114886 -0.000781107 0)
(0.115928 -0.000808739 0)
(0.116984 -0.000836033 0)
(0.118054 -0.000862979 0)
(0.119135 -0.000889567 0)
(0.120227 -0.000915779 0)
(0.121328 -0.000941597 0)
(0.122438 -0.000966998 0)
(0.123554 -0.000991955 0)
(0.124675 -0.00101644 0)
(0.125801 -0.00104042 0)
(0.12693 -0.00106385 0)
(0.128061 -0.0010867 0)
(0.129193 -0.00110892 0)
(0.130325 -0.00113046 0)
(0.131456 -0.00115126 0)
(0.132584 -0.00117126 0)
(0.133709 -0.0011904 0)
(0.134829 -0.00120859 0)
(0.135943 -0.00122575 0)
(0.13705 -0.0012418 0)
(0.13815 -0.00125662 0)
(0.13924 -0.0012701 0)
(0.140319 -0.00128211 0)
(0.141387 -0.00129251 0)
(0.142442 -0.00130113 0)
(0.143483 -0.00130778 0)
(0.144508 -0.00131226 0)
(0.145516 -0.00131432 0)
(0.146505 -0.00131369 0)
(0.147473 -0.00131004 0)
(0.14842 -0.00130302 0)
(0.149342 -0.00129219 0)
(0.150239 -0.00127706 0)
(0.151107 -0.00125704 0)
(0.151944 -0.00123143 0)
(0.152747 -0.00119941 0)
(0.153514 -0.00116 0)
(0.154241 -0.00111198 0)
(0.154923 -0.00105392 0)
(0.155556 -0.000984023 0)
(0.156136 -0.000900066 0)
(0.156655 -0.000799275 0)
(0.157107 -0.000678132 0)
(0.157483 -0.000532126 0)
(0.157774 -0.000355407 0)
(0.157966 -0.000140277 0)
(0.158045 0.00012352 0)
(0.157994 0.000449992 0)
(0.15779 0.000858613 0)
(0.157406 0.00137686 0)
(0.156811 0.00204419 0)
(0.155965 0.00291825 0)
(0.154824 0.00408441 0)
(0.153342 0.00566988 0)
(0.151488 0.0078626 0)
(0.149265 0.010931 0)
(0.146791 0.0152292 0)
(0.1445 0.0210716 0)
(0.143686 0.0279485 0)
(0.100031 -8.24409e-05 0)
(0.100189 -0.000156491 0)
(0.100448 -0.000224279 0)
(0.100785 -0.000286942 0)
(0.101195 -0.000345923 0)
(0.101669 -0.000402034 0)
(0.102203 -0.0004558 0)
(0.10279 -0.000507638 0)
(0.103426 -0.000557859 0)
(0.104108 -0.000606707 0)
(0.104831 -0.000654375 0)
(0.105594 -0.000701018 0)
(0.106392 -0.000746763 0)
(0.107223 -0.00079171 0)
(0.108085 -0.000835944 0)
(0.108975 -0.000879528 0)
(0.109892 -0.000922517 0)
(0.110833 -0.000964949 0)
(0.111796 -0.00100686 0)
(0.11278 -0.00104826 0)
(0.113784 -0.00108917 0)
(0.114805 -0.00112959 0)
(0.115842 -0.00116952 0)
(0.116893 -0.00120897 0)
(0.117958 -0.0012479 0)
(0.119034 -0.00128631 0)
(0.12012 -0.00132418 0)
(0.121216 -0.00136146 0)
(0.12232 -0.00139814 0)
(0.12343 -0.00143418 0)
(0.124545 -0.00146952 0)
(0.125665 -0.00150413 0)
(0.126788 -0.00153794 0)
(0.127913 -0.0015709 0)
(0.129038 -0.00160295 0)
(0.130164 -0.001634 0)
(0.131287 -0.00166398 0)
(0.132409 -0.00169281 0)
(0.133526 -0.00172037 0)
(0.134639 -0.00174656 0)
(0.135746 -0.00177126 0)
(0.136846 -0.00179434 0)
(0.137938 -0.00181565 0)
(0.13902 -0.00183501 0)
(0.140092 -0.00185225 0)
(0.141152 -0.00186716 0)
(0.142199 -0.0018795 0)
(0.143232 -0.00188899 0)
(0.144249 -0.00189535 0)
(0.145248 -0.00189823 0)
(0.146229 -0.00189723 0)
(0.14719 -0.00189191 0)
(0.148129 -0.00188173 0)
(0.149044 -0.00186611 0)
(0.149933 -0.00184432 0)
(0.150794 -0.00181555 0)
(0.151625 -0.00177881 0)
(0.152423 -0.00173297 0)
(0.153185 -0.00167662 0)
(0.153908 -0.00160812 0)
(0.154588 -0.00152546 0)
(0.155221 -0.00142617 0)
(0.155803 -0.00130723 0)
(0.156328 -0.00116489 0)
(0.15679 -0.000994423 0)
(0.157182 -0.000789861 0)
(0.157496 -0.000543544 0)
(0.157722 -0.000245569 0)
(0.15785 0.000116991 0)
(0.157867 0.000561228 0)
(0.157758 0.00111021 0)
(0.157511 0.00179526 0)
(0.157109 0.00265919 0)
(0.156541 0.00376077 0)
(0.155802 0.00518053 0)
(0.154907 0.007027 0)
(0.153903 0.00944037 0)
(0.152906 0.012584 0)
(0.152141 0.0166004 0)
(0.152001 0.0214582 0)
(0.153055 0.0265091 0)
(0.100028 -0.000107728 0)
(0.100183 -0.000206725 0)
(0.100437 -0.0002969 0)
(0.10077 -0.000380349 0)
(0.101175 -0.000458867 0)
(0.101645 -0.000533536 0)
(0.102174 -0.00060507 0)
(0.102756 -0.000674023 0)
(0.103388 -0.000740815 0)
(0.104065 -0.000805769 0)
(0.104784 -0.000869144 0)
(0.105541 -0.000931149 0)
(0.106334 -0.000991951 0)
(0.10716 -0.00105168 0)
(0.108016 -0.00111046 0)
(0.108901 -0.00116837 0)
(0.109812 -0.00122548 0)
(0.110747 -0.00128184 0)
(0.111705 -0.00133749 0)
(0.112683 -0.00139247 0)
(0.11368 -0.00144678 0)
(0.114695 -0.00150044 0)
(0.115725 -0.00155345 0)
(0.11677 -0.00160579 0)
(0.117827 -0.00165745 0)
(0.118896 -0.0017084 0)
(0.119976 -0.00175862 0)
(0.121064 -0.00180806 0)
(0.12216 -0.00185669 0)
(0.123262 -0.00190444 0)
(0.12437 -0.00195128 0)
(0.125481 -0.00199712 0)
(0.126596 -0.0020419 0)
(0.127712 -0.00208554 0)
(0.128829 -0.00212795 0)
(0.129945 -0.00216904 0)
(0.13106 -0.00220869 0)
(0.132172 -0.00224679 0)
(0.13328 -0.00228321 0)
(0.134383 -0.00231779 0)
(0.135481 -0.0023504 0)
(0.136571 -0.00238084 0)
(0.137652 -0.00240892 0)
(0.138724 -0.00243441 0)
(0.139786 -0.00245709 0)
(0.140836 -0.00247666 0)
(0.141872 -0.00249283 0)
(0.142894 -0.00250524 0)
(0.143901 -0.00251351 0)
(0.14489 -0.00251717 0)
(0.145861 -0.00251572 0)
(0.146811 -0.00250858 0)
(0.14774 -0.00249506 0)
(0.148645 -0.0024744 0)
(0.149525 -0.00244567 0)
(0.150378 -0.00240783 0)
(0.151201 -0.00235964 0)
(0.151992 -0.00229962 0)
(0.152748 -0.00222603 0)
(0.153467 -0.0021368 0)
(0.154146 -0.00202941 0)
(0.15478 -0.00190084 0)
(0.155366 -0.00174739 0)
(0.1559 -0.00156451 0)
(0.156377 -0.00134657 0)
(0.156792 -0.00108653 0)
(0.157138 -0.000775571 0)
(0.157409 -0.00040248 0)
(0.1576 4.69908e-05 0)
(0.157703 0.000590848 0)
(0.157713 0.00125258 0)
(0.157627 0.00206256 0)
(0.157445 0.00305987 0)
(0.157175 0.00429437 0)
(0.15684 0.0058282 0)
(0.156485 0.00773549 0)
(0.156189 0.0100967 0)
(0.156083 0.0129799 0)
(0.156363 0.0163958 0)
(0.157283 0.0201994 0)
(0.159073 0.0239174 0)
(0.100025 -0.000133758 0)
(0.100176 -0.000259292 0)
(0.100425 -0.000373289 0)
(0.100753 -0.000478931 0)
(0.101152 -0.00057832 0)
(0.101616 -0.000672807 0)
(0.102139 -0.000763307 0)
(0.102716 -0.000850521 0)
(0.103342 -0.000934982 0)
(0.104013 -0.0010171 0)
(0.104725 -0.00109722 0)
(0.105476 -0.00117558 0)
(0.106262 -0.00125241 0)
(0.107082 -0.00132788 0)
(0.107931 -0.00140212 0)
(0.108809 -0.00147526 0)
(0.109713 -0.00154737 0)
(0.110641 -0.00161853 0)
(0.111591 -0.00168878 0)
(0.112561 -0.00175816 0)
(0.11355 -0.0018267 0)
(0.114557 -0.0018944 0)
(0.115578 -0.00196125 0)
(0.116614 -0.00202725 0)
(0.117663 -0.00209238 0)
(0.118723 -0.00215661 0)
(0.119793 -0.00221989 0)
(0.120872 -0.00228218 0)
(0.121958 -0.00234343 0)
(0.12305 -0.00240356 0)
(0.124148 -0.00246251 0)
(0.125249 -0.00252019 0)
(0.126353 -0.00257652 0)
(0.127458 -0.00263139 0)
(0.128564 -0.0026847 0)
(0.129669 -0.00273631 0)
(0.130773 -0.0027861 0)
(0.131873 -0.00283392 0)
(0.132969 -0.0028796 0)
(0.134061 -0.00292296 0)
(0.135146 -0.0029638 0)
(0.136223 -0.0030019 0)
(0.137292 -0.00303701 0)
(0.138352 -0.00306887 0)
(0.139401 -0.00309716 0)
(0.140438 -0.00312154 0)
(0.141461 -0.00314164 0)
(0.14247 -0.00315702 0)
(0.143464 -0.00316719 0)
(0.144441 -0.00317161 0)
(0.145399 -0.00316964 0)
(0.146337 -0.00316058 0)
(0.147254 -0.00314359 0)
(0.148148 -0.00311774 0)
(0.149017 -0.00308192 0)
(0.14986 -0.00303487 0)
(0.150674 -0.00297511 0)
(0.151458 -0.0029009 0)
(0.152209 -0.00281017 0)
(0.152924 -0.00270051 0)
(0.153602 -0.00256901 0)
(0.154239 -0.00241221 0)
(0.154832 -0.00222592 0)
(0.155379 -0.00200508 0)
(0.155876 -0.00174353 0)
(0.156319 -0.0014337 0)
(0.156705 -0.00106634 0)
(0.157033 -0.000630006 0)
(0.157298 -0.000110619 0)
(0.157501 0.000508936 0)
(0.157642 0.00124962 0)
(0.157727 0.00213724 0)
(0.157768 0.0032027 0)
(0.157785 0.00448206 0)
(0.157812 0.00601533 0)
(0.157903 0.00784299 0)
(0.158134 0.00999791 0)
(0.158613 0.0124894 0)
(0.159475 0.0152742 0)
(0.160857 0.0182107 0)
(0.162842 0.021006 0)
(0.100021 -0.000160547 0)
(0.10017 -0.000314128 0)
(0.100413 -0.000453396 0)
(0.100734 -0.000582662 0)
(0.101127 -0.000704304 0)
(0.101584 -0.000819925 0)
(0.1021 -0.000930643 0)
(0.10267 -0.00103732 0)
(0.103288 -0.0011406 0)
(0.103951 -0.001241 0)
(0.104656 -0.00133892 0)
(0.105399 -0.00143468 0)
(0.106178 -0.00152855 0)
(0.106989 -0.00162074 0)
(0.10783 -0.00171142 0)
(0.108699 -0.00180072 0)
(0.109594 -0.00188875 0)
(0.110513 -0.0019756 0)
(0.111453 -0.00206132 0)
(0.112414 -0.00214597 0)
(0.113393 -0.00222956 0)
(0.11439 -0.0023121 0)
(0.115401 -0.00239361 0)
(0.116427 -0.00247405 0)
(0.117465 -0.00255341 0)
(0.118514 -0.00263164 0)
(0.119572 -0.0027087 0)
(0.12064 -0.00278453 0)
(0.121714 -0.00285906 0)
(0.122794 -0.00293221 0)
(0.123879 -0.0030039 0)
(0.124968 -0.00307402 0)
(0.126059 -0.00314247 0)
(0.127152 -0.00320912 0)
(0.128244 -0.00327383 0)
(0.129336 -0.00333645 0)
(0.130425 -0.00339683 0)
(0.131512 -0.00345479 0)
(0.132594 -0.00351011 0)
(0.133671 -0.00356259 0)
(0.134741 -0.00361198 0)
(0.135804 -0.00365802 0)
(0.136858 -0.00370041 0)
(0.137903 -0.00373882 0)
(0.138937 -0.00377289 0)
(0.139959 -0.00380222 0)
(0.140967 -0.00382633 0)
(0.141961 -0.00384473 0)
(0.14294 -0.00385684 0)
(0.143902 -0.00386201 0)
(0.144846 -0.0038595 0)
(0.14577 -0.00384848 0)
(0.146674 -0.00382799 0)
(0.147555 -0.00379694 0)
(0.148412 -0.00375406 0)
(0.149244 -0.00369791 0)
(0.150049 -0.0036268 0)
(0.150825 -0.00353878 0)
(0.15157 -0.00343155 0)
(0.152283 -0.00330245 0)
(0.152961 -0.00314831 0)
(0.153603 -0.0029654 0)
(0.154207 -0.0027493 0)
(0.15477 -0.00249476 0)
(0.155291 -0.0021955 0)
(0.155769 -0.00184404 0)
(0.156202 -0.00143144 0)
(0.156591 -0.000947051 0)
(0.156938 -0.000378227 0)
(0.157246 0.000289868 0)
(0.157521 0.00107375 0)
(0.157775 0.00199271 0)
(0.158023 0.00306794 0)
(0.158292 0.00432143 0)
(0.158616 0.00577371 0)
(0.159043 0.00744003 0)
(0.159635 0.0093237 0)
(0.160466 0.0114061 0)
(0.161616 0.0136323 0)
(0.163152 0.0158948 0)
(0.165093 0.0180234 0)
(0.100018 -0.000188123 0)
(0.100163 -0.000371188 0)
(0.1004 -0.000537182 0)
(0.100714 -0.00069151 0)
(0.101099 -0.00083682 0)
(0.101549 -0.000974931 0)
(0.102057 -0.00110717 0)
(0.102618 -0.00123454 0)
(0.103228 -0.00135785 0)
(0.103882 -0.00147768 0)
(0.104578 -0.00159452 0)
(0.105312 -0.00170877 0)
(0.10608 -0.00182073 0)
(0.106882 -0.00193065 0)
(0.107713 -0.00203875 0)
(0.108571 -0.00214518 0)
(0.109456 -0.00225007 0)
(0.110364 -0.00235353 0)
(0.111293 -0.00245562 0)
(0.112243 -0.0025564 0)
(0.11321 -0.0026559 0)
(0.114195 -0.00275413 0)
(0.115194 -0.00285108 0)
(0.116207 -0.00294675 0)
(0.117232 -0.0030411 0)
(0.118268 -0.00313407 0)
(0.119314 -0.00322563 0)
(0.120367 -0.00331569 0)
(0.121428 -0.00340417 0)
(0.122494 -0.00349099 0)
(0.123564 -0.00357602 0)
(0.124638 -0.00365917 0)
(0.125715 -0.00374028 0)
(0.126792 -0.00381923 0)
(0.127869 -0.00389584 0)
(0.128945 -0.00396994 0)
(0.130018 -0.00404135 0)
(0.131088 -0.00410983 0)
(0.132154 -0.00417516 0)
(0.133214 -0.00423709 0)
(0.134268 -0.00429533 0)
(0.135314 -0.00434956 0)
(0.136351 -0.00439945 0)
(0.137379 -0.0044446 0)
(0.138395 -0.00448461 0)
(0.1394 -0.00451899 0)
(0.140392 -0.00454722 0)
(0.141369 -0.00456872 0)
(0.142331 -0.00458283 0)
(0.143276 -0.0045888 0)
(0.144204 -0.00458581 0)
(0.145113 -0.00457291 0)
(0.146002 -0.00454903 0)
(0.146869 -0.00451295 0)
(0.147714 -0.00446329 0)
(0.148534 -0.00439845 0)
(0.14933 -0.00431662 0)
(0.150098 -0.00421569 0)
(0.150839 -0.00409323 0)
(0.15155 -0.00394643 0)
(0.15223 -0.00377205 0)
(0.152879 -0.0035663 0)
(0.153495 -0.00332479 0)
(0.154077 -0.00304239 0)
(0.154626 -0.00271318 0)
(0.155142 -0.00233026 0)
(0.155626 -0.00188571 0)
(0.156081 -0.00137042 0)
(0.156511 -0.000774106 0)
(0.156922 -8.52582e-05 0)
(0.157324 0.000708193 0)
(0.15773 0.00161825 0)
(0.158157 0.00265711 0)
(0.15863 0.00383516 0)
(0.159179 0.00515892 0)
(0.159842 0.00662804 0)
(0.160661 0.00823123 0)
(0.161683 0.00994117 0)
(0.162949 0.0117092 0)
(0.164487 0.0134614 0)
(0.166294 0.0151013 0)
(0.100015 -0.000216527 0)
(0.100157 -0.000430452 0)
(0.100387 -0.00062462 0)
(0.100694 -0.000805447 0)
(0.10107 -0.000975853 0)
(0.101511 -0.00113784 0)
(0.10201 -0.00129293 0)
(0.102561 -0.0014423 0)
(0.103161 -0.00158685 0)
(0.103806 -0.00172731 0)
(0.104491 -0.00186423 0)
(0.105214 -0.00199807 0)
(0.105971 -0.0021292 0)
(0.106761 -0.00225791 0)
(0.107581 -0.00238445 0)
(0.108427 -0.002509 0)
(0.109299 -0.00263172 0)
(0.110195 -0.00275272 0)
(0.111111 -0.0028721 0)
(0.112048 -0.0029899 0)
(0.113002 -0.00310616 0)
(0.113972 -0.00322091 0)
(0.114958 -0.00333414 0)
(0.115956 -0.00344582 0)
(0.116966 -0.00355591 0)
(0.117987 -0.00366438 0)
(0.119017 -0.00377114 0)
(0.120055 -0.00387611 0)
(0.1211 -0.0039792 0)
(0.12215 -0.00408031 0)
(0.123204 -0.00417929 0)
(0.124261 -0.00427603 0)
(0.12532 -0.00437035 0)
(0.126379 -0.0044621 0)
(0.127439 -0.00455109 0)
(0.128497 -0.00463711 0)
(0.129552 -0.00471994 0)
(0.130604 -0.00479933 0)
(0.131651 -0.00487501 0)
(0.132693 -0.0049467 0)
(0.133727 -0.00501405 0)
(0.134754 -0.00507672 0)
(0.135772 -0.00513431 0)
(0.136781 -0.0051864 0)
(0.137778 -0.0052325 0)
(0.138764 -0.00527208 0)
(0.139736 -0.00530455 0)
(0.140695 -0.00532926 0)
(0.141639 -0.00534548 0)
(0.142566 -0.0053524 0)
(0.143476 -0.00534909 0)
(0.144369 -0.00533454 0)
(0.145242 -0.00530757 0)
(0.146094 -0.0052669 0)
(0.146926 -0.00521104 0)
(0.147735 -0.00513833 0)
(0.14852 -0.00504685 0)
(0.149282 -0.00493447 0)
(0.150018 -0.00479871 0)
(0.150728 -0.00463679 0)
(0.151412 -0.00444553 0)
(0.15207 -0.00422129 0)
(0.1527 -0.00395997 0)
(0.153304 -0.0036569 0)
(0.153884 -0.00330686 0)
(0.154439 -0.00290397 0)
(0.154974 -0.00244175 0)
(0.155493 -0.00191316 0)
(0.156001 -0.00131068 0)
(0.156507 -0.000626438 0)
(0.157021 0.000147546 0)
(0.157555 0.0010173 0)
(0.158126 0.00198752 0)
(0.158754 0.00306053 0)
(0.159462 0.00423433 0)
(0.160277 0.00550082 0)
(0.161225 0.00684374 0)
(0.162332 0.00823679 0)
(0.163618 0.0096424 0)
(0.165092 0.0110123 0)
(0.166744 0.0122918 0)
(0.100011 -0.000245804 0)
(0.10015 -0.000491907 0)
(0.100374 -0.00071569 0)
(0.100673 -0.000924443 0)
(0.101041 -0.00112138 0)
(0.101472 -0.00130864 0)
(0.10196 -0.00148794 0)
(0.102501 -0.00166061 0)
(0.10309 -0.00182769 0)
(0.103722 -0.00199 0)
(0.104396 -0.00214818 0)
(0.105106 -0.00230276 0)
(0.105851 -0.00245417 0)
(0.106628 -0.00260274 0)
(0.107434 -0.00274876 0)
(0.108267 -0.00289244 0)
(0.109125 -0.00303397 0)
(0.110006 -0.00317347 0)
(0.110908 -0.00331105 0)
(0.11183 -0.00344677 0)
(0.112768 -0.00358067 0)
(0.113723 -0.00371279 0)
(0.114692 -0.00384309 0)
(0.115674 -0.00397158 0)
(0.116668 -0.00409819 0)
(0.117672 -0.00422287 0)
(0.118684 -0.00434553 0)
(0.119705 -0.0044661 0)
(0.120731 -0.00458444 0)
(0.121763 -0.00470045 0)
(0.122798 -0.00481397 0)
(0.123836 -0.00492484 0)
(0.124876 -0.0050329 0)
(0.125916 -0.00513794 0)
(0.126955 -0.00523975 0)
(0.127993 -0.00533811 0)
(0.129028 -0.00543275 0)
(0.13006 -0.0055234 0)
(0.131086 -0.00560976 0)
(0.132107 -0.00569148 0)
(0.13312 -0.00576821 0)
(0.134126 -0.00583955 0)
(0.135123 -0.00590506 0)
(0.136111 -0.00596427 0)
(0.137087 -0.00601663 0)
(0.138052 -0.00606158 0)
(0.139004 -0.00609846 0)
(0.139942 -0.00612657 0)
(0.140866 -0.00614512 0)
(0.141774 -0.00615323 0)
(0.142666 -0.00614993 0)
(0.143541 -0.00613414 0)
(0.144397 -0.00610464 0)
(0.145235 -0.00606009 0)
(0.146052 -0.00599897 0)
(0.14685 -0.0059196 0)
(0.147626 -0.00582008 0)
(0.14838 -0.00569829 0)
(0.149113 -0.00555187 0)
(0.149824 -0.00537816 0)
(0.150512 -0.00517421 0)
(0.151179 -0.00493676 0)
(0.151825 -0.00466219 0)
(0.152452 -0.00434655 0)
(0.153061 -0.00398554 0)
(0.153655 -0.00357458 0)
(0.154238 -0.00310887 0)
(0.154816 -0.00258352 0)
(0.155394 -0.00199373 0)
(0.15598 -0.00133506 0)
(0.156585 -0.000603641 0)
(0.15722 0.000203662 0)
(0.157899 0.00108613 0)
(0.158635 0.00204062 0)
(0.159446 0.00306106 0)
(0.160348 0.00413678 0)
(0.161357 0.00525174 0)
(0.162485 0.00638425 0)
(0.163742 0.00750727 0)
(0.165126 0.00858994 0)
(0.166626 0.00960098 0)
(0.100008 -0.000275998 0)
(0.100144 -0.000555551 0)
(0.100361 -0.000810373 0)
(0.100651 -0.00104847 0)
(0.10101 -0.00127335 0)
(0.10143 -0.0014873 0)
(0.101908 -0.00169218 0)
(0.102437 -0.00188949 0)
(0.103013 -0.00208038 0)
(0.103633 -0.00226578 0)
(0.104293 -0.00244642 0)
(0.10499 -0.00262291 0)
(0.105721 -0.00279572 0)
(0.106483 -0.00296524 0)
(0.107275 -0.0031318 0)
(0.108092 -0.00329564 0)
(0.108935 -0.00345696 0)
(0.1098 -0.00361593 0)
(0.110685 -0.00377264 0)
(0.111589 -0.00392719 0)
(0.112511 -0.00407961 0)
(0.113448 -0.00422992 0)
(0.114399 -0.00437813 0)
(0.115363 -0.0045242 0)
(0.116338 -0.00466807 0)
(0.117323 -0.00480969 0)
(0.118316 -0.00494896 0)
(0.119316 -0.00508577 0)
(0.120322 -0.00522 0)
(0.121333 -0.0053515 0)
(0.122348 -0.00548011 0)
(0.123365 -0.00560566 0)
(0.124383 -0.00572794 0)
(0.125402 -0.00584673 0)
(0.12642 -0.00596181 0)
(0.127435 -0.0060729 0)
(0.128448 -0.00617972 0)
(0.129457 -0.00628196 0)
(0.13046 -0.00637929 0)
(0.131458 -0.00647134 0)
(0.132449 -0.0065577 0)
(0.133432 -0.00663794 0)
(0.134406 -0.00671159 0)
(0.135371 -0.00677812 0)
(0.136325 -0.00683696 0)
(0.137267 -0.00688749 0)
(0.138197 -0.00692903 0)
(0.139114 -0.00696081 0)
(0.140016 -0.00698201 0)
(0.140904 -0.00699172 0)
(0.141777 -0.00698894 0)
(0.142633 -0.00697255 0)
(0.143472 -0.00694134 0)
(0.144294 -0.00689395 0)
(0.145098 -0.0068289 0)
(0.145883 -0.00674454 0)
(0.14665 -0.00663907 0)
(0.147398 -0.00651049 0)
(0.148127 -0.00635664 0)
(0.148838 -0.00617514 0)
(0.149532 -0.0059634 0)
(0.150208 -0.00571867 0)
(0.15087 -0.00543797 0)
(0.151517 -0.00511819 0)
(0.152154 -0.00475614 0)
(0.152784 -0.00434856 0)
(0.15341 -0.00389232 0)
(0.154038 -0.00338452 0)
(0.154673 -0.00282272 0)
(0.155324 -0.00220519 0)
(0.155998 -0.00153115 0)
(0.156705 -0.000800998 0)
(0.157456 -1.61641e-05 0)
(0.158261 0.000818329 0)
(0.15913 0.00169319 0)
(0.160073 0.0025981 0)
(0.161097 0.00351955 0)
(0.162209 0.00444115 0)
(0.16341 0.00534423 0)
(0.164697 0.00620916 0)
(0.16606 0.00701776 0)
(0.100004 -0.000307147 0)
(0.100137 -0.000621382 0)
(0.100349 -0.000908646 0)
(0.10063 -0.00117748 0)
(0.100978 -0.00143172 0)
(0.101388 -0.00167376 0)
(0.101853 -0.00190559 0)
(0.10237 -0.00212886 0)
(0.102933 -0.00234486 0)
(0.103539 -0.00255461 0)
(0.104184 -0.00275893 0)
(0.104866 -0.0029585 0)
(0.105581 -0.00315385 0)
(0.106328 -0.00334542 0)
(0.107102 -0.00353359 0)
(0.107903 -0.00371862 0)
(0.108728 -0.00390074 0)
(0.109575 -0.00408013 0)
(0.110442 -0.00425691 0)
(0.111328 -0.00443118 0)
(0.11223 -0.00460298 0)
(0.113148 -0.00477234 0)
(0.114079 -0.00493924 0)
(0.115023 -0.00510366 0)
(0.115977 -0.00526555 0)
(0.11694 -0.00542481 0)
(0.117912 -0.00558135 0)
(0.118891 -0.00573505 0)
(0.119875 -0.00588576 0)
(0.120863 -0.00603333 0)
(0.121855 -0.00617758 0)
(0.122849 -0.0063183 0)
(0.123844 -0.00645528 0)
(0.124839 -0.00658827 0)
(0.125832 -0.00671701 0)
(0.126824 -0.00684121 0)
(0.127812 -0.00696055 0)
(0.128797 -0.00707471 0)
(0.129776 -0.00718331 0)
(0.130749 -0.00728595 0)
(0.131715 -0.0073822 0)
(0.132673 -0.00747159 0)
(0.133623 -0.00755362 0)
(0.134563 -0.00762772 0)
(0.135493 -0.0076933 0)
(0.136411 -0.0077497 0)
(0.137318 -0.00779621 0)
(0.138212 -0.00783206 0)
(0.139092 -0.00785639 0)
(0.139959 -0.00786828 0)
(0.140811 -0.00786673 0)
(0.141648 -0.00785065 0)
(0.142469 -0.00781883 0)
(0.143275 -0.00776998 0)
(0.144065 -0.0077027 0)
(0.144838 -0.00761545 0)
(0.145596 -0.00750658 0)
(0.146337 -0.00737433 0)
(0.147063 -0.0072168 0)
(0.147774 -0.00703198 0)
(0.148472 -0.00681776 0)
(0.149157 -0.00657197 0)
(0.149832 -0.00629236 0)
(0.150499 -0.00597673 0)
(0.15116 -0.00562292 0)
(0.151818 -0.00522898 0)
(0.152479 -0.0047932 0)
(0.153147 -0.00431436 0)
(0.153826 -0.0037918 0)
(0.154523 -0.0032257 0)
(0.155245 -0.00261725 0)
(0.155999 -0.00196881 0)
(0.156791 -0.00128406 0)
(0.15763 -0.000567798 0)
(0.158522 0.000174126 0)
(0.159472 0.000931742 0)
(0.160483 0.00169243 0)
(0.161557 0.0024445 0)
(0.162692 0.00317541 0)
(0.163884 0.00387283 0)
(0.165125 0.00452623 0)
(0.0999993 -0.000339275 0)
(0.100131 -0.000689391 0)
(0.100336 -0.00101047 0)
(0.100608 -0.00131142 0)
(0.100946 -0.00159641 0)
(0.101344 -0.00186792 0)
(0.101797 -0.00212806 0)
(0.102299 -0.00237863 0)
(0.102848 -0.00262102 0)
(0.103439 -0.00285637 0)
(0.104069 -0.00308559 0)
(0.104734 -0.00330941 0)
(0.105432 -0.00352844 0)
(0.106161 -0.00374317 0)
(0.106918 -0.003954 0)
(0.1077 -0.00416124 0)
(0.108506 -0.00436516 0)
(0.109333 -0.00456593 0)
(0.11018 -0.00476371 0)
(0.111045 -0.00495858 0)
(0.111927 -0.00515062 0)
(0.112823 -0.00533984 0)
(0.113733 -0.00552623 0)
(0.114654 -0.00570976 0)
(0.115585 -0.00589037 0)
(0.116526 -0.00606796 0)
(0.117474 -0.00624242 0)
(0.118429 -0.00641362 0)
(0.119389 -0.00658141 0)
(0.120353 -0.00674559 0)
(0.12132 -0.00690599 0)
(0.122288 -0.00706236 0)
(0.123258 -0.00721448 0)
(0.124227 -0.00736208 0)
(0.125195 -0.00750486 0)
(0.12616 -0.00764252 0)
(0.127122 -0.00777473 0)
(0.12808 -0.0079011 0)
(0.129033 -0.00802126 0)
(0.12998 -0.00813477 0)
(0.130919 -0.00824118 0)
(0.131851 -0.00833999 0)
(0.132775 -0.00843066 0)
(0.133689 -0.00851264 0)
(0.134593 -0.00858528 0)
(0.135486 -0.00864793 0)
(0.136368 -0.00869986 0)
(0.137238 -0.00874029 0)
(0.138096 -0.00876838 0)
(0.13894 -0.00878323 0)
(0.139771 -0.00878387 0)
(0.140589 -0.00876924 0)
(0.141392 -0.00873822 0)
(0.142181 -0.00868962 0)
(0.142956 -0.00862215 0)
(0.143717 -0.00853448 0)
(0.144465 -0.00842515 0)
(0.145199 -0.00829269 0)
(0.145921 -0.00813555 0)
(0.146632 -0.00795214 0)
(0.147332 -0.00774088 0)
(0.148024 -0.00750018 0)
(0.148709 -0.00722856 0)
(0.14939 -0.00692464 0)
(0.15007 -0.00658722 0)
(0.150751 -0.00621543 0)
(0.151437 -0.00580872 0)
(0.152133 -0.00536708 0)
(0.152842 -0.0048911 0)
(0.153569 -0.00438211 0)
(0.154319 -0.00384232 0)
(0.155097 -0.00327487 0)
(0.155908 -0.00268398 0)
(0.156755 -0.00207489 0)
(0.157643 -0.00145374 0)
(0.158575 -0.000827124 0)
(0.159552 -0.00020141 0)
(0.160574 0.000414386 0)
(0.161638 0.00101119 0)
(0.16274 0.00157942 0)
(0.163874 0.00211288 0)
(0.0999948 -0.000372395 0)
(0.100124 -0.000759557 0)
(0.100323 -0.00111578 0)
(0.100586 -0.0014502 0)
(0.100913 -0.00176728 0)
(0.101299 -0.00206962 0)
(0.101738 -0.00235942 0)
(0.102226 -0.00263859 0)
(0.10276 -0.00290865 0)
(0.103334 -0.00317084 0)
(0.103947 -0.00342615 0)
(0.104595 -0.00367539 0)
(0.105275 -0.00391923 0)
(0.105984 -0.0041582 0)
(0.106721 -0.00439275 0)
(0.107483 -0.00462323 0)
(0.108268 -0.00484991 0)
(0.109074 -0.00507301 0)
(0.1099 -0.00529268 0)
(0.110743 -0.00550903 0)
(0.111601 -0.00572214 0)
(0.112474 -0.00593202 0)
(0.11336 -0.00613866 0)
(0.114257 -0.00634202 0)
(0.115164 -0.00654204 0)
(0.116079 -0.00673861 0)
(0.117002 -0.00693162 0)
(0.117931 -0.00712091 0)
(0.118865 -0.0073063 0)
(0.119802 -0.00748762 0)
(0.120742 -0.00766464 0)
(0.121684 -0.00783712 0)
(0.122626 -0.00800479 0)
(0.123568 -0.00816738 0)
(0.124508 -0.00832458 0)
(0.125445 -0.00847604 0)
(0.126379 -0.00862141 0)
(0.127309 -0.00876031 0)
(0.128233 -0.00889231 0)
(0.129152 -0.00901698 0)
(0.130064 -0.00913383 0)
(0.130968 -0.00924236 0)
(0.131864 -0.00934202 0)
(0.13275 -0.00943222 0)
(0.133628 -0.00951234 0)
(0.134495 -0.00958172 0)
(0.135351 -0.00963963 0)
(0.136196 -0.00968533 0)
(0.137029 -0.00971799 0)
(0.137851 -0.00973677 0)
(0.13866 -0.00974076 0)
(0.139457 -0.00972899 0)
(0.140241 -0.00970044 0)
(0.141013 -0.00965407 0)
(0.141773 -0.00958877 0)
(0.142521 -0.00950341 0)
(0.143258 -0.00939681 0)
(0.143984 -0.00926781 0)
(0.1447 -0.00911523 0)
(0.145408 -0.00893794 0)
(0.146109 -0.00873486 0)
(0.146804 -0.00850501 0)
(0.147496 -0.00824755 0)
(0.148186 -0.00796182 0)
(0.148878 -0.00764744 0)
(0.149573 -0.00730432 0)
(0.150275 -0.00693278 0)
(0.150987 -0.00653361 0)
(0.151712 -0.00610811 0)
(0.152455 -0.00565821 0)
(0.153216 -0.00518648 0)
(0.154001 -0.00469617 0)
(0.154812 -0.00419123 0)
(0.155651 -0.00367623 0)
(0.15652 -0.00315633 0)
(0.157419 -0.00263715 0)
(0.158349 -0.0021245 0)
(0.159309 -0.00162408 0)
(0.160297 -0.00114106 0)
(0.161311 -0.000679002 0)
(0.162346 -0.000242136 0)
(0.0999899 -0.000406503 0)
(0.100117 -0.000831834 0)
(0.10031 -0.00122448 0)
(0.100564 -0.00159367 0)
(0.100879 -0.00194417 0)
(0.101252 -0.00227864 0)
(0.101678 -0.0025994 0)
(0.102151 -0.00290845 0)
(0.102667 -0.00320743 0)
(0.103225 -0.00349768 0)
(0.103819 -0.00378026 0)
(0.104448 -0.00405606 0)
(0.105108 -0.0043258 0)
(0.105797 -0.00459008 0)
(0.106513 -0.00484937 0)
(0.107253 -0.00510406 0)
(0.108016 -0.00535446 0)
(0.108799 -0.00560079 0)
(0.109601 -0.00584324 0)
(0.110419 -0.00608191 0)
(0.111253 -0.00631688 0)
(0.112101 -0.00654818 0)
(0.112961 -0.0067758 0)
(0.113832 -0.00699969 0)
(0.114712 -0.00721977 0)
(0.1156 -0.00743594 0)
(0.116496 -0.00764807 0)
(0.117397 -0.00785599 0)
(0.118303 -0.00805951 0)
(0.119212 -0.00825843 0)
(0.120123 -0.00845252 0)
(0.121035 -0.00864152 0)
(0.121948 -0.00882514 0)
(0.12286 -0.00900308 0)
(0.123771 -0.00917502 0)
(0.124678 -0.0093406 0)