/*--------------------------------*- C++ -*----------------------------------*\
| =========                 |                                                 |
| \\      /  F ield         | OpenFOAM: The Open Source CFD Toolbox           |
|  \\    /   O peration     | Version:  2106                                  |
|   \\  /    A nd           | Website:  www.openfoam.com                      |
|    \\/     M anipulation  |                                                 |
\*---------------------------------------------------------------------------*/
FoamFile
{
    version     2.0;
    format      ascii;
    arch        "LSB;label=32;scalar=64";
    class       surfaceScalarField;
    location    "1.4";
    object      phi;
}
// * * * * * * * * * * * * * * * * * * * * * * * * * * * * * * * * * * * * * //

dimensions      [1 0 -1 0 0 0 0];

oriented        oriented;

internalField   nonuniform List<scalar> 
23692
(
9.31088e-05
-2.91949e-08
9.31608e-05
-5.19067e-08
9.32308e-05
-6.97651e-08
9.33135e-05
-8.24943e-08
9.34044e-05
-9.04927e-08
9.34989e-05
-9.39858e-08
9.35927e-05
-9.32943e-08
9.36824e-05
-8.9045e-08
9.37653e-05
-8.21813e-08
9.384e-05
-7.38835e-08
9.39063e-05
-6.54004e-08
9.39651e-05
-5.78573e-08
9.40183e-05
-5.21108e-08
9.40682e-05
-4.86538e-08
9.41171e-05
-4.76379e-08
9.41674e-05
-4.89227e-08
9.42211e-05
-5.21686e-08
9.42796e-05
-5.69524e-08
9.43441e-05
-6.28385e-08
9.44154e-05
-6.94391e-08
9.44937e-05
-7.64385e-08
9.45793e-05
-8.36106e-08
9.46722e-05
-9.07967e-08
9.47722e-05
-9.79021e-08
9.48794e-05
-1.04874e-07
9.49934e-05
-1.11684e-07
9.51142e-05
-1.18319e-07
9.52415e-05
-1.24775e-07
9.53752e-05
-1.31043e-07
9.5515e-05
-1.37117e-07
9.56608e-05
-1.42983e-07
9.58123e-05
-1.48624e-07
9.59692e-05
-1.5402e-07
9.61314e-05
-1.59147e-07
9.62984e-05
-1.63978e-07
9.647e-05
-1.68486e-07
9.66459e-05
-1.72638e-07
9.68255e-05
-1.764e-07
9.70086e-05
-1.7974e-07
9.71946e-05
-1.82616e-07
9.73829e-05
-1.8499e-07
9.75732e-05
-1.86817e-07
9.77647e-05
-1.88052e-07
9.79569e-05
-1.88643e-07
9.8149e-05
-1.88537e-07
9.83402e-05
-1.87672e-07
9.85298e-05
-1.85983e-07
9.87168e-05
-1.83397e-07
9.89003e-05
-1.79834e-07
9.90791e-05
-1.75203e-07
9.92522e-05
-1.694e-07
9.94182e-05
-1.62315e-07
9.95756e-05
-1.5381e-07
9.9723e-05
-1.43737e-07
9.98586e-05
-1.31922e-07
9.99805e-05
-1.1816e-07
0.000100086
-1.02212e-07
0.000100174
-8.37967e-08
0.00010024
-6.2576e-08
0.000100282
-3.81441e-08
0.000100295
-1.00097e-08
0.000100277
2.24424e-08
0.00010022
5.99783e-08
0.00010012
1.0355e-07
9.99694e-05
1.54365e-07
9.97589e-05
2.13979e-07
9.9478e-05
2.84426e-07
9.9113e-05
3.68407e-07
9.86469e-05
4.69571e-07
9.80574e-05
5.92944e-07
9.73151e-05
7.45588e-07
9.63809e-05
9.37637e-07
9.52002e-05
1.18397e-06
9.36966e-05
1.50693e-06
9.1759e-05
1.94083e-06
8.92228e-05
2.53945e-06
8.58379e-05
3.38813e-06
8.12163e-05
4.62473e-06
7.47317e-05
6.4877e-06
6.53004e-05
9.43442e-06
1.46959e-05
5.06075e-05
9.963e-05
-5.9877e-08
9.96855e-05
-1.07293e-07
9.97603e-05
-1.44351e-07
9.98488e-05
-1.70704e-07
9.9946e-05
-1.87287e-07
0.000100047
-1.94545e-07
0.000100148
-1.9314e-07
0.000100243
-1.84358e-07
0.000100332
-1.70153e-07
0.000100412
-1.52966e-07
0.000100483
-1.35379e-07
0.000100546
-1.19729e-07
0.000100603
-1.07778e-07
0.000100656
-1.00567e-07
0.000100708
-9.84002e-08
0.000100762
-1.00987e-07
0.000100819
-1.07644e-07
0.000100881
-1.17485e-07
0.00010095
-1.29609e-07
0.000101025
-1.43212e-07
0.000101109
-1.57649e-07
0.0001012
-1.72438e-07
0.000101298
-1.8726e-07
0.000101405
-2.01916e-07
0.000101518
-2.16293e-07
0.00010164
-2.30334e-07
0.000101768
-2.44014e-07
0.000101903
-2.57318e-07
0.000102045
-2.70234e-07
0.000102194
-2.82743e-07
0.000102348
-2.94818e-07
0.000102509
-3.06427e-07
0.000102676
-3.17528e-07
0.000102848
-3.28068e-07
0.000103025
-3.37998e-07
0.000103208
-3.47253e-07
0.000103394
-3.55772e-07
0.000103585
-3.63485e-07
0.000103779
-3.70316e-07
0.000103976
-3.76191e-07
0.000104176
-3.81025e-07
0.000104377
-3.84729e-07
0.00010458
-3.87206e-07
0.000104784
-3.88353e-07
0.000104987
-3.88056e-07
0.000105189
-3.86193e-07
0.00010539
-3.82628e-07
0.000105587
-3.77211e-07
0.000105781
-3.69776e-07
0.00010597
-3.60138e-07
0.000106153
-3.48088e-07
0.000106328
-3.33389e-07
0.000106494
-3.15774e-07
0.000106649
-2.94934e-07
0.000106791
-2.70511e-07
0.000106919
-2.42092e-07
0.00010703
-2.0919e-07
0.000107121
-1.71234e-07
0.00010719
-1.2754e-07
0.000107233
-7.72893e-08
0.000107247
-1.94874e-08
0.000107226
4.70976e-08
0.000107166
1.23992e-07
0.00010706
2.13086e-07
0.000106901
3.16769e-07
0.000106681
4.38096e-07
0.000106388
5.8103e-07
0.000106009
7.50781e-07
0.000105528
9.54313e-07
0.000104924
1.20107e-06
0.000104169
1.5041e-06
0.000103228
1.88169e-06
0.000102056
2.35995e-06
0.00010059
2.97668e-06
9.8747e-05
3.78713e-06
9.64176e-05
4.87227e-06
9.34605e-05
6.34865e-06
8.97115e-05
8.37713e-06
8.50357e-05
1.11668e-05
7.95668e-05
1.49066e-05
1.91978e-05
7.50682e-05
0.000106608
-9.20105e-08
0.000106667
-1.66267e-07
0.000106747
-2.2385e-07
0.000106841
-2.6486e-07
0.000106945
-2.90692e-07
0.000107053
-3.02043e-07
0.00010716
-2.9994e-07
0.000107263
-2.86375e-07
0.000107358
-2.64363e-07
0.000107444
-2.37686e-07
0.00010752
-2.10347e-07
0.000107587
-1.85965e-07
0.000107648
-1.6729e-07
0.000107705
-1.55941e-07
0.00010776
-1.52403e-07
0.000107817
-1.56238e-07
0.000107878
-1.66387e-07
0.000107943
-1.81487e-07
0.000108016
-2.00142e-07
0.000108096
-2.21105e-07
0.000108184
-2.43368e-07
0.00010828
-2.66189e-07
0.000108384
-2.89065e-07
0.000108496
-3.11685e-07
0.000108616
-3.33869e-07
0.000108744
-3.55531e-07
0.00010888
-3.76629e-07
0.000109022
-3.97138e-07
0.000109172
-4.17037e-07
0.000109329
-4.36299e-07
0.000109492
-4.54883e-07
0.000109662
-4.72735e-07
0.000109837
-4.8979e-07
0.000110019
-5.05974e-07
0.000110205
-5.21199e-07
0.000110397
-5.35374e-07
0.000110593
-5.48402e-07
0.000110794
-5.60172e-07
0.000110998
-5.70575e-07
0.000111205
-5.79487e-07
0.000111415
-5.86781e-07
0.000111626
-5.9232e-07
0.000111839
-5.95955e-07
0.000112052
-5.97525e-07
0.000112265
-5.96858e-07
0.000112477
-5.93764e-07
0.000112686
-5.88034e-07
0.000112892
-5.79439e-07
0.000113095
-5.67726e-07
0.000113291
-5.5261e-07
0.000113481
-5.33773e-07
0.000113663
-5.10854e-07
0.000113835
-4.83443e-07
0.000113995
-4.51074e-07
0.000114142
-4.13205e-07
0.000114273
-3.69211e-07
0.000114387
-3.18359e-07
0.000114479
-2.59787e-07
0.000114548
-1.92471e-07
0.00011459
-1.15189e-07
0.000114602
-2.64592e-08
0.000114577
7.55341e-08
0.000114512
1.93023e-07
0.000114401
3.28759e-07
0.000114235
4.86187e-07
0.000114008
6.6967e-07
0.000113708
8.84796e-07
0.000113324
1.13881e-06
0.000112841
1.44119e-06
0.000112241
1.80455e-06
0.000111504
2.24582e-06
0.000110601
2.78792e-06
0.000109503
3.46224e-06
0.000108171
4.31174e-06
0.000106567
5.3949e-06
0.000104654
6.78944e-06
0.000102414
8.59248e-06
9.98853e-05
1.09092e-05
9.72447e-05
1.3811e-05
9.49634e-05
1.71914e-05
2.0345e-05
9.38198e-05
0.000114074
-1.25645e-07
0.000114137
-2.28857e-07
0.000114222
-3.08401e-07
0.000114323
-3.65195e-07
0.000114433
-4.01019e-07
0.000114549
-4.16863e-07
0.000114664
-4.14152e-07
0.000114774
-3.95598e-07
0.000114876
-3.65345e-07
0.000114967
-3.28581e-07
0.000115049
-2.90812e-07
0.000115121
-2.5703e-07
0.000115186
-2.31034e-07
0.000115247
-2.1507e-07
0.000115306
-2.0984e-07
0.000115366
-2.14759e-07
0.00011543
-2.28387e-07
0.000115499
-2.48859e-07
0.000115576
-2.74261e-07
0.000115659
-3.0287e-07
0.000115752
-3.33299e-07
0.000115852
-3.64516e-07
0.000115962
-3.95822e-07
0.00011608
-4.26779e-07
0.000116206
-4.5714e-07
0.00011634
-4.86775e-07
0.000116482
-5.15622e-07
0.000116631
-5.43647e-07
0.000116788
-5.7082e-07
0.000116952
-5.971e-07
0.000117123
-6.2243e-07
0.000117301
-6.46739e-07
0.000117485
-6.69935e-07
0.000117674
-6.91916e-07
0.000117869
-7.12562e-07
0.00011807
-7.31752e-07
0.000118275
-7.49345e-07
0.000118484
-7.65198e-07
0.000118696
-7.79153e-07
0.000118912
-7.91048e-07
0.00011913
-8.00706e-07
0.00011935
-8.07938e-07
0.000119571
-8.12543e-07
0.000119792
-8.14302e-07
0.000120012
-8.12979e-07
0.000120231
-8.08316e-07
0.000120447
-8.00031e-07
0.00012066
-7.87813e-07
0.000120868
-7.71317e-07
0.00012107
-7.50161e-07
0.000121265
-7.23915e-07
0.000121451
-6.92096e-07
0.000121626
-6.54155e-07
0.000121789
-6.09465e-07
0.000121937
-5.57307e-07
0.000122069
-4.9685e-07
0.000122183
-4.27125e-07
0.000122274
-3.46998e-07
0.000122342
-2.55128e-07
0.000122381
-1.4992e-07
0.000122388
-2.94571e-08
0.00012236
1.08591e-07
0.00012229
2.67048e-07
0.000122174
4.49368e-07
0.000122004
6.59829e-07
0.000121775
9.03763e-07
0.000121476
1.18789e-06
0.000121098
1.52071e-06
0.00012063
1.91314e-06
0.00012006
2.3792e-06
0.000119373
2.93704e-06
0.000118555
3.6102e-06
0.000117592
4.42909e-06
0.000116475
5.43255e-06
0.000115205
6.66874e-06
0.000113805
8.19389e-06
0.000112336
1.0065e-05
0.00011093
1.23195e-05
0.000109818
1.49268e-05
0.000109326
1.76868e-05
2.00535e-05
0.000109621
0.000122064
-1.60852e-07
0.00012213
-2.95112e-07
0.00012222
-3.98142e-07
0.000122327
-4.71932e-07
0.000122446
-5.18597e-07
0.000122569
-5.39427e-07
0.000122692
-5.36266e-07
0.000122809
-5.12599e-07
0.000122919
-4.73725e-07
0.000123017
-4.26302e-07
0.000123105
-3.7742e-07
0.000123183
-3.33518e-07
0.000123253
-2.99518e-07
0.000123318
-2.78361e-07
0.000123381
-2.70993e-07
0.000123444
-2.76707e-07
0.000123512
-2.93678e-07
0.000123584
-3.19525e-07
0.000123664
-3.51787e-07
0.000123752
-3.88248e-07
0.000123848
-4.27105e-07
0.000123953
-4.67023e-07
0.000124067
-5.07083e-07
0.00012419
-5.46708e-07
0.000124321
-5.85566e-07
0.000124461
-6.23479e-07
0.000124609
-6.60363e-07
0.000124765
-6.96165e-07
0.000124928
-7.30844e-07
0.000125099
-7.64347e-07
0.000125277
-7.966e-07
0.000125462
-8.27507e-07
0.000125652
-8.56954e-07
0.000125849
-8.84806e-07
0.000126052
-9.10917e-07
0.000126259
-9.35123e-07
0.000126471
-9.57248e-07
0.000126687
-9.77107e-07
0.000126907
-9.94501e-07
0.00012713
-1.00922e-06
0.000127354
-1.02104e-06
0.000127581
-1.02971e-06
0.000127808
-1.03499e-06
0.000128035
-1.0366e-06
0.000128261
-1.03422e-06
0.000128484
-1.02755e-06
0.000128705
-1.01621e-06
0.000128922
-9.99829e-07
0.000129134
-9.77959e-07
0.000129338
-9.50124e-07
0.000129535
-9.15786e-07
0.000129722
-8.74343e-07
0.000129898
-8.25111e-07
0.00013006
-7.67318e-07
0.000130208
-7.00077e-07
0.000130338
-6.22368e-07
0.000130449
-5.33012e-07
0.000130537
-4.30632e-07
0.000130601
-3.13618e-07
0.000130636
-1.80061e-07
0.000130639
-2.76946e-08
0.000130606
1.46203e-07
0.000130533
3.4488e-07
0.000130414
5.72265e-07
0.000130246
8.33142e-07
0.000130021
1.13336e-06
0.000129733
1.48012e-06
0.000129376
1.88231e-06
0.000128943
2.35094e-06
0.000128427
2.89964e-06
0.000127823
3.54526e-06
0.000127129
4.30846e-06
0.000126348
5.21409e-06
0.000125494
6.2912e-06
0.000124596
7.57162e-06
0.000123708
9.08603e-06
0.000122922
1.08546e-05
0.000122378
1.28682e-05
0.000122253
1.50552e-05
0.000122714
1.72304e-05
1.90411e-05
0.00012373
0.000130613
-1.97708e-07
0.000130683
-3.65098e-07
0.000130779
-4.93221e-07
0.000130892
-5.85294e-07
0.000131018
-6.43737e-07
0.000131149
-6.70161e-07
0.000131281
-6.66834e-07
0.000131407
-6.38024e-07
0.000131525
-5.90225e-07
0.000131631
-5.31625e-07
0.000131726
-4.70946e-07
0.00013181
-4.16165e-07
0.000131885
-3.73399e-07
0.000131955
-3.46349e-07
0.000132022
-3.36257e-07
0.000132089
-3.42324e-07
0.00013216
-3.62349e-07
0.000132236
-3.93433e-07
0.00013232
-4.3255e-07
0.000132411
-4.76962e-07
0.000132511
-5.2443e-07
0.00013262
-5.73281e-07
0.000132738
-6.22357e-07
0.000132865
-6.70922e-07
0.000133001
-7.18544e-07
0.000133146
-7.6499e-07
0.000133299
-8.10139e-07
0.000133461
-8.53923e-07
0.00013363
-8.96281e-07
0.000133806
-9.37144e-07
0.00013399
-9.7642e-07
0.000134181
-1.01399e-06
0.000134377
-1.04971e-06
0.00013458
-1.08343e-06
0.000134789
-1.11495e-06
0.000135002
-1.14408e-06
0.00013522
-1.1706e-06
0.000135442
-1.19428e-06
0.000135667
-1.21489e-06
0.000135894
-1.23216e-06
0.000136124
-1.24582e-06
0.000136354
-1.25558e-06
0.000136585
-1.26113e-06
0.000136816
-1.26212e-06
0.000137045
-1.2582e-06
0.000137271
-1.24897e-06
0.000137494
-1.234e-06
0.000137712
-1.21282e-06
0.000137924
-1.1849e-06
0.000138129
-1.14969e-06
0.000138325
-1.10654e-06
0.00013851
-1.05474e-06
0.000138684
-9.93485e-07
0.000138844
-9.21868e-07
0.000138987
-8.38863e-07
0.000139114
-7.43291e-07
0.000139219
-6.33798e-07
0.000139303
-5.0882e-07
0.000139361
-3.66539e-07
0.000139391
-2.04831e-07
0.000139389
-2.11977e-08
0.000139353
1.87313e-07
0.000139279
4.24154e-07
0.000139163
6.93444e-07
0.000139001
1.00009e-06
0.000138789
1.34994e-06
0.000138524
1.74999e-06
0.000138203
2.20858e-06
0.000137823
2.73566e-06
0.000137384
3.34294e-06
0.00013689
4.0441e-06
0.000136349
4.85472e-06
0.000135776
5.79194e-06
0.000135198
6.87338e-06
0.000134659
8.11489e-06
0.000134224
9.52613e-06
0.00013398
1.11029e-05
0.000134038
1.28146e-05
0.000134511
1.45867e-05
0.000135465
1.62807e-05
1.76872e-05
0.000136823
0.000139761
-2.36286e-07
0.000139835
-4.38892e-07
0.000139936
-5.93776e-07
0.000140056
-7.05506e-07
0.00014019
-7.76782e-07
0.00014033
-8.0951e-07
0.00014047
-8.06427e-07
0.000140606
-7.72571e-07
0.000140732
-7.15657e-07
0.000140847
-6.45421e-07
0.00014095
-5.72296e-07
0.000141041
-5.0584e-07
0.000141123
-4.53459e-07
0.000141198
-4.19687e-07
0.00014127
-4.06131e-07
0.000141342
-4.11934e-07
0.000141416
-4.34558e-07
0.000141496
-4.70577e-07
0.000141582
-5.164e-07
0.000141676
-5.68738e-07
0.00014178
-6.24894e-07
0.000141892
-6.8282e-07
0.000142014
-7.411e-07
0.000142145
-7.9881e-07
0.000142285
-8.55404e-07
0.000142435
-9.10577e-07
0.000142592
-9.64163e-07
0.000142758
-1.01607e-06
0.000142932
-1.0662e-06
0.000143113
-1.11449e-06
0.000143302
-1.16081e-06
0.000143497
-1.20503e-06
0.000143699
-1.24696e-06
0.000143907
-1.28643e-06
0.000144119
-1.32321e-06
0.000144337
-1.35706e-06
0.000144559
-1.38773e-06
0.000144785
-1.41495e-06
0.000145013
-1.43844e-06
0.000145244
-1.45788e-06
0.000145476
-1.47296e-06
0.000145709
-1.48332e-06
0.000145942
-1.48862e-06
0.000146173
-1.48844e-06
0.000146403
-1.48236e-06
0.000146629
-1.46994e-06
0.000146851
-1.45066e-06
0.000147068
-1.42398e-06
0.000147277
-1.38931e-06
0.000147479
-1.346e-06
0.000147672
-1.29332e-06
0.000147853
-1.23045e-06
0.000148021
-1.15651e-06
0.000148175
-1.07048e-06
0.000148313
-9.71213e-07
0.000148433
-8.57425e-07
0.000148532
-7.27641e-07
0.000148609
-5.80178e-07
0.000148661
-4.131e-07
0.000148686
-2.24181e-07
0.000148681
-1.0846e-08
0.000148644
2.29896e-07
0.000148572
5.01462e-07
0.000148463
8.07846e-07
0.000148315
1.15368e-06
0.000148125
1.54431e-06
0.000147895
1.98591e-06
0.000147623
2.48554e-06
0.000147313
3.05118e-06
0.000146969
3.69167e-06
0.000146602
4.41657e-06
0.000146226
5.23573e-06
0.000145864
6.15852e-06
0.00014555
7.19251e-06
0.000145329
8.34125e-06
0.000145259
9.60092e-06
0.000145411
1.09553e-05
0.000145861
1.23692e-05
0.000146671
1.37813e-05
0.000147858
1.50988e-05
1.62028e-05
0.000149347
0.000149549
-2.76662e-07
0.000149627
-5.16564e-07
0.000149734
-6.9995e-07
0.000149861
-8.3277e-07
0.000150003
-9.18028e-07
0.000150152
-9.57922e-07
0.000150303
-9.55628e-07
0.000150448
-9.16977e-07
0.000150584
-8.50888e-07
0.000150709
-7.68663e-07
0.000150821
-6.82472e-07
0.00015092
-6.03533e-07
0.000151009
-5.40611e-07
0.00015109
-4.99157e-07
0.000151167
-4.81219e-07
0.000151243
-4.85961e-07
0.000151322
-5.1053e-07
0.000151405
-5.51007e-07
0.000151494
-6.03214e-07
0.000151592
-6.63311e-07
0.000151698
-7.28098e-07
0.000151813
-7.95143e-07
0.000151938
-8.62721e-07
0.000152073
-9.29707e-07
0.000152216
-9.95408e-07
0.000152369
-1.05943e-06
0.00015253
-1.12155e-06
0.0001527
-1.18164e-06
0.000152878
-1.23959e-06
0.000153063
-1.29528e-06
0.000153255
-1.34858e-06
0.000153454
-1.39933e-06
0.000153659
-1.44732e-06
0.00015387
-1.49233e-06
0.000154085
-1.5341e-06
0.000154306
-1.57237e-06
0.00015453
-1.60683e-06
0.000154757
-1.63719e-06
0.000154987
-1.66309e-06
0.000155219
-1.68421e-06
0.000155452
-1.70016e-06
0.000155685
-1.71055e-06
0.000155916
-1.71497e-06
0.000156147
-1.71296e-06
0.000156374
-1.70404e-06
0.000156598
-1.6877e-06
0.000156816
-1.66338e-06
0.000157028
-1.63047e-06
0.000157233
-1.58831e-06
0.000157429
-1.53618e-06
0.000157615
-1.47329e-06
0.000157789
-1.39875e-06
0.00015795
-1.31159e-06
0.000158096
-1.21074e-06
0.000158226
-1.09499e-06
0.000158337
-9.62974e-07
0.000158429
-8.13183e-07
0.000158498
-6.43896e-07
0.000158544
-4.5317e-07
0.000158565
-2.38804e-07
0.000158558
1.68826e-09
0.000158523
2.71127e-07
0.000158457
5.72661e-07
0.000158361
9.09861e-07
0.000158234
1.28672e-06
0.000158076
1.7077e-06
0.00015789
2.17768e-06
0.000157679
2.70196e-06
0.00015745
3.28609e-06
0.000157211
3.93575e-06
0.000156977
4.65633e-06
0.000156765
5.45242e-06
0.000156602
6.32704e-06
0.00015652
7.28042e-06
0.000156558
8.30847e-06
0.000156763
9.40061e-06
0.000157186
1.05373e-05
0.000157873
1.16872e-05
0.000158854
1.28054e-05
0.000160125
1.38335e-05
1.47057e-05
0.000161627
0.000160023
-3.18896e-07
0.000160105
-5.98167e-07
0.000160218
-8.11852e-07
0.000160353
-9.67268e-07
0.000160503
-1.06776e-06
0.000160662
-1.1158e-06
0.000160822
-1.11501e-06
0.000160978
-1.07197e-06
0.000161125
-9.96794e-07
0.00016126
-9.02344e-07
0.000161382
-8.02538e-07
0.00016149
-7.10305e-07
0.000161587
-6.35843e-07
0.000161676
-5.85619e-07
0.000161759
-5.62217e-07
0.00016184
-5.64895e-07
0.000161923
-5.90552e-07
0.000162009
-6.34797e-07
0.000162102
-6.9289e-07
0.000162202
-7.60407e-07
0.000162311
-8.33638e-07
0.000162429
-9.09714e-07
0.000162556
-9.86586e-07
0.000162693
-1.06288e-06
0.000162839
-1.13774e-06
0.000162995
-1.21066e-06
0.000163159
-1.28134e-06
0.000163331
-1.3496e-06
0.000163511
-1.41529e-06
0.000163699
-1.47828e-06
0.000163893
-1.53841e-06
0.000164094
-1.59548e-06
0.000164301
-1.64925e-06
0.000164514
-1.69948e-06
0.000164731
-1.74589e-06
0.000164952
-1.78815e-06
0.000165176
-1.82594e-06
0.000165404
-1.8589e-06
0.000165633
-1.88667e-06
0.000165863
-1.90885e-06
0.000166094
-1.92503e-06
0.000166324
-1.93476e-06
0.000166553
-1.93758e-06
0.000166779
-1.93299e-06
0.000167001
-1.92047e-06
0.000167219
-1.89945e-06
0.000167431
-1.86932e-06
0.000167636
-1.82943e-06
0.000167833
-1.77907e-06
0.000168021
-1.71746e-06
0.000168198
-1.64376e-06
0.000168362
-1.55707e-06
0.000168513
-1.45637e-06
0.00016865
-1.34056e-06
0.000168769
-1.20842e-06
0.000168871
-1.05859e-06
0.000168954
-8.89592e-07
0.000169016
-6.99756e-07
0.000169056
-4.87249e-07
0.000169074
-2.50037e-07
0.000169068
1.41222e-08
0.000169037
3.07689e-07
0.000168983
6.33331e-07
0.000168905
9.93957e-07
0.000168805
1.39268e-06
0.000168686
1.83279e-06
0.000168552
2.31765e-06
0.000168409
2.85063e-06
0.000168267
3.43486e-06
0.000168135
4.07303e-06
0.00016803
4.76698e-06
0.000167971
5.51725e-06
0.000167982
6.3224e-06
0.00016809
7.17829e-06
0.000168327
8.07706e-06
0.000168727
9.00621e-06
0.000169322
9.94752e-06
0.000170138
1.08764e-05
0.000171187
1.1762e-05
0.000172457
1.25689e-05
1.32611e-05
0.000173907
0.000171231
-3.63038e-07
0.000171317
-6.83739e-07
0.000171435
-9.2956e-07
0.000171577
-1.10913e-06
0.000171736
-1.22619e-06
0.000171905
-1.28348e-06
0.000172076
-1.28505e-06
0.000172243
-1.23821e-06
0.000172402
-1.1542e-06
0.000172549
-1.04742e-06
0.000172681
-9.33533e-07
0.0001728
-8.2721e-07
0.000172906
-7.40162e-07
0.000173003
-6.79967e-07
0.000173093
-6.49852e-07
0.00017318
-6.49269e-07
0.000173267
-6.74942e-07
0.000173357
-7.22061e-07
0.000173453
-7.85334e-07
0.000173555
-8.59758e-07
0.000173666
-9.41075e-07
0.000173786
-1.02596e-06
0.000173915
-1.11199e-06
0.000174054
-1.19752e-06
0.000174202
-1.28148e-06
0.000174359
-1.36324e-06
0.000174524
-1.44241e-06
0.000174698
-1.51873e-06
0.000174879
-1.59202e-06
0.000175068
-1.6621e-06
0.000175264
-1.7288e-06
0.000175465
-1.79186e-06
0.000175673
-1.85106e-06
0.000175885
-1.90609e-06
0.000176101
-1.95664e-06
0.000176321
-2.00236e-06
0.000176544
-2.04289e-06
0.000176769
-2.07784e-06
0.000176995
-2.10679e-06
0.000177221
-2.12932e-06
0.000177448
-2.14498e-06
0.000177672
-2.15327e-06
0.000177895
-2.1537e-06
0.000178114
-2.14574e-06
0.000178329
-2.12881e-06
0.000178538
-2.10232e-06
0.000178741
-2.06562e-06
0.000178937
-2.01802e-06
0.000179123
-1.9588e-06
0.000179299
-1.88715e-06
0.000179465
-1.80223e-06
0.000179617
-1.70312e-06
0.000179756
-1.5888e-06
0.000179881
-1.45822e-06
0.000179989
-1.31018e-06
0.000180081
-1.14341e-06
0.000180155
-9.56543e-07
0.00018021
-7.48061e-07
0.000180245
-5.16345e-07
0.000180262
-2.59654e-07
0.000180259
2.3871e-08
0.000180237
3.36186e-07
0.000180197
6.79322e-07
0.000180143
1.05538e-06
0.000180075
1.46645e-06
0.00018
1.91457e-06
0.000179923
2.40158e-06
0.000179851
2.92902e-06
0.000179794
3.49792e-06
0.000179765
4.10854e-06
0.000179778
4.76011e-06
0.000179851
5.45045e-06
0.000180004
6.17562e-06
0.000180259
6.92941e-06
0.000180639
7.70299e-06
0.000181167
8.48456e-06
0.000181861
9.25916e-06
0.000182734
1.00088e-05
0.000183789
1.07133e-05
0.000185012
1.13514e-05
1.19036e-05
0.000186375
0.000183224
-4.0911e-07
0.000183313
-7.73275e-07
0.000183437
-1.05309e-06
0.000183587
-1.2584e-06
0.000183755
-1.39344e-06
0.000183934
-1.46119e-06
0.000184116
-1.46612e-06
0.000184295
-1.4162e-06
0.000184466
-1.32378e-06
0.000184625
-1.2047e-06
0.00018477
-1.07636e-06
0.0001849
-9.55197e-07
0.000185016
-8.54491e-07
0.000185121
-7.83036e-07
0.000185219
-7.44821e-07
0.000185312
-7.39599e-07
0.000185404
-7.64015e-07
0.000185498
-8.12902e-07
0.000185596
-8.80445e-07
0.000185701
-9.61061e-07
0.000185814
-1.04994e-06
0.000185935
-1.14324e-06
0.000186065
-1.23816e-06
0.000186204
-1.33271e-06
0.000186353
-1.42561e-06
0.00018651
-1.51604e-06
0.000186676
-1.6035e-06
0.00018685
-1.68767e-06
0.000187031
-1.76829e-06
0.00018722
-1.84516e-06
0.000187415
-1.91804e-06
0.000187615
-1.98669e-06
0.00018782
-2.05081e-06
0.00018803
-2.1101e-06
0.000188244
-2.1642e-06
0.00018846
-2.21273e-06
0.000188679
-2.25531e-06
0.000188899
-2.2915e-06
0.00018912
-2.32087e-06
0.00018934
-2.34295e-06
0.000189559
-2.35725e-06
0.000189776
-2.36327e-06
0.000189989
-2.36047e-06
0.000190199
-2.34829e-06
0.000190403
-2.32614e-06
0.000190601
-2.29339e-06
0.000190792
-2.2494e-06
0.000190974
-2.19346e-06
0.000191147
-2.12484e-06
0.00019131
-2.04276e-06
0.000191462
-1.94638e-06
0.0001916
-1.83482e-06
0.000191726
-1.70713e-06
0.000191837
-1.56232e-06
0.000191934
-1.39931e-06
0.000192014
-1.21698e-06
0.000192079
-1.01412e-06
0.000192128
-7.89484e-07
0.00019216
-5.41752e-07
0.000192178
-2.6957e-07
0.00019218
2.84362e-08
0.00019217
3.5363e-07
0.000192149
7.07326e-07
0.000192121
1.09076e-06
0.000192089
1.50502e-06
0.00019206
1.95093e-06
0.000192039
2.429e-06
0.000192036
2.93925e-06
0.000192059
3.48107e-06
0.000192122
4.05303e-06
0.000192236
4.65271e-06
0.000192416
5.27648e-06
0.000192679
5.91931e-06
0.000193041
6.57461e-06
0.000193516
7.23412e-06
0.000194119
7.88793e-06
0.00019486
8.52462e-06
0.000195743
9.13166e-06
0.000196767
9.69606e-06
0.000197919
1.02054e-05
1.06491e-05
0.00019918
0.000196056
-4.57106e-07
0.00019615
-8.66728e-07
0.000196279
-1.18238e-06
0.000196437
-1.41505e-06
0.000196614
-1.56949e-06
0.000196802
-1.64899e-06
0.000196996
-1.65837e-06
0.000197187
-1.60625e-06
0.000197371
-1.50596e-06
0.000197542
-1.37474e-06
0.0001977
-1.23169e-06
0.000197841
-1.09499e-06
0.000197969
-9.79556e-07
0.000198084
-8.95503e-07
0.000198189
-8.47694e-07
0.000198289
-8.36307e-07
0.000198386
-8.58018e-07
0.000198484
-9.07368e-07
0.000198585
-9.78066e-07
0.000198692
-1.06396e-06
0.000198805
-1.15967e-06
0.000198927
-1.26084e-06
0.000199057
-1.36419e-06
0.000199197
-1.4674e-06
0.000199345
-1.56892e-06
0.000199501
-1.66773e-06
0.000199666
-1.76317e-06
0.000199838
-1.85484e-06
0.000200018
-1.94241e-06
0.000200204
-2.02562e-06
0.000200396
-2.1042e-06
0.000200593
-2.17787e-06
0.000200795
-2.24632e-06
0.000201
-2.3092e-06
0.000201209
-2.36614e-06
0.000201419
-2.41673e-06
0.000201631
-2.46056e-06
0.000201844
-2.49717e-06
0.000202056
-2.52609e-06
0.000202267
-2.54684e-06
0.000202475
-2.5589e-06
0.000202681
-2.56176e-06
0.000202883
-2.55485e-06
0.000203079
-2.53762e-06
0.00020327
-2.50945e-06
0.000203454
-2.46973e-06
0.00020363
-2.41781e-06
0.000203797
-2.35301e-06
0.000203954
-2.27462e-06
0.000204101
-2.18191e-06
0.000204237
-2.07409e-06
0.00020436
-1.95036e-06
0.00020447
-1.80988e-06
0.000204568
-1.65179e-06
0.000204651
-1.47517e-06
0.000204721
-1.2791e-06
0.000204777
-1.06264e-06
0.00020482
-8.24836e-07
0.000204851
-5.6475e-07
0.00020487
-2.81474e-07
0.000204881
2.58339e-08
0.000204884
3.57916e-07
0.000204884
7.15372e-07
0.000204883
1.09863e-06
0.000204888
1.50784e-06
0.000204903
1.94285e-06
0.000204937
2.40309e-06
0.000204996
2.88747e-06
0.00020509
3.39428e-06
0.000205229
3.92109e-06
0.000205424
4.46468e-06
0.000205687
5.02088e-06
0.000206029
5.58459e-06
0.000206461
6.14976e-06
0.000206993
6.70939e-06
0.000207632
7.25572e-06
0.000208383
7.78047e-06
0.000209246
8.27515e-06
0.000210217
8.73156e-06
0.000211287
9.14247e-06
9.50236e-06
0.00021244
0.000209787
-5.06987e-07
0.000209885
-9.63985e-07
0.00021002
-1.31726e-06
0.000210184
-1.57888e-06
0.00021037
-1.75417e-06
0.000210569
-1.84672e-06
0.000210773
-1.8617e-06
0.000210977
-1.80831e-06
0.000211173
-1.7008e-06
0.000211358
-1.55773e-06
0.000211528
-1.39979e-06
0.000211682
-1.24693e-06
0.000211821
-1.11576e-06
0.000211946
-1.01776e-06
0.00021206
-9.58802e-07
0.000212166
-9.39629e-07
0.000212268
-9.57038e-07
0.00021237
-1.00538e-06
0.000212473
-1.07793e-06
0.000212581
-1.168e-06
0.000212696
-1.26962e-06
0.000212817
-1.37788e-06
0.000212947
-1.48904e-06
0.000213084
-1.60038e-06
0.00021323
-1.71003e-06
0.000213385
-1.81674e-06
0.000213547
-1.91971e-06
0.000213716
-2.01838e-06
0.000213892
-2.11236e-06
0.000214073
-2.20134e-06
0.00021426
-2.28499e-06
0.000214452
-2.36301e-06
0.000214647
-2.43505e-06
0.000214846
-2.50075e-06
0.000215046
-2.5597e-06
0.000215248
-2.61149e-06
0.00021545
-2.65568e-06
0.000215652
-2.69178e-06
0.000215852
-2.71933e-06
0.000216051
-2.73782e-06
0.000216246
-2.74672e-06
0.000216438
-2.74552e-06
0.000216624
-2.73365e-06
0.000216805
-2.71055e-06
0.000216979
-2.67564e-06
0.000217146
-2.62832e-06
0.000217304
-2.56797e-06
0.000217453
-2.49396e-06
0.000217592
-2.40563e-06
0.000217721
-2.30233e-06
0.000217838
-2.18338e-06
0.000217944
-2.0481e-06
0.000218039
-1.89577e-06
0.000218121
-1.72572e-06
0.000218191
-1.53726e-06
0.00021825
-1.3297e-06
0.000218298
-1.10241e-06
0.000218336
-8.54777e-07
0.000218366
-5.86275e-07
0.000218389
-2.96458e-07
0.000218408
1.49876e-08
0.000218426
3.48216e-07
0.000218446
7.03184e-07
0.000218473
1.07961e-06
0.000218512
1.47693e-06
0.000218569
1.89422e-06
0.00021865
2.33016e-06
0.000218762
2.78296e-06
0.000218914
3.25032e-06
0.000219113
3.72938e-06
0.000219369
4.21669e-06
0.000219689
4.70821e-06
0.000220082
5.1993e-06
0.000220555
5.68485e-06
0.000221112
6.15932e-06
0.000221759
6.61691e-06
0.000222495
7.05179e-06
0.000223319
7.45834e-06
0.000224226
7.83146e-06
0.000225208
8.16699e-06
8.46214e-06
0.000226256
0.00022448
-5.58671e-07
0.000224581
-1.06486e-06
0.000224721
-1.45748e-06
0.000224893
-1.74956e-06
0.000225087
-1.94707e-06
0.000225295
-2.05393e-06
0.00022551
-2.07566e-06
0.000225725
-2.02197e-06
0.000225934
-1.90794e-06
0.000226132
-1.75336e-06
0.000226314
-1.58045e-06
0.000226481
-1.41092e-06
0.000226631
-1.26303e-06
0.000226765
-1.14978e-06
0.000226888
-1.07814e-06
0.000227001
-1.0495e-06
0.000227108
-1.06092e-06
0.000227213
-1.10665e-06
0.000227319
-1.17959e-06
0.000227428
-1.27254e-06
0.000227542
-1.37894e-06
0.000227662
-1.49334e-06
0.000227789
-1.61147e-06
0.000227924
-1.73019e-06
0.000228067
-1.84729e-06
0.000228217
-1.96126e-06
0.000228374
-2.0711e-06
0.000228538
-2.17612e-06
0.000228708
-2.27583e-06
0.000228882
-2.36984e-06
0.000229062
-2.45779e-06
0.000229245
-2.53934e-06
0.000229431
-2.61411e-06
0.000229619
-2.68173e-06
0.000229809
-2.74177e-06
0.000229998
-2.79379e-06
0.000230188
-2.83736e-06
0.000230376
-2.87198e-06
0.000230561
-2.89718e-06
0.000230744
-2.91244e-06
0.000230923
-2.91726e-06
0.000231096
-2.91111e-06
0.000231264
-2.89346e-06
0.000231426
-2.86378e-06
0.00023158
-2.8215e-06
0.000231727
-2.76609e-06
0.000231864
-2.69698e-06
0.000231993
-2.61361e-06
0.000232111
-2.51542e-06
0.000232219
-2.40187e-06
0.000232317
-2.2724e-06
0.000232404
-2.12648e-06
0.000232481
-1.9636e-06
0.000232547
-1.78328e-06
0.000232604
-1.58507e-06
0.000232652
-1.36858e-06
0.000232692
-1.13348e-06
0.000232725
-8.79532e-07
0.000232754
-6.06605e-07
0.000232781
-3.14695e-07
0.000232809
-3.96355e-09
0.000232841
3.25236e-07
0.00023288
6.72329e-07
0.000232932
1.0365e-06
0.000233001
1.41665e-06
0.000233092
1.81136e-06
0.000233212
2.21887e-06
0.000233367
2.63706e-06
0.000233562
3.06342e-06
0.000233805
3.49504e-06
0.000234101
3.92867e-06
0.000234457
4.36069e-06
0.000234877
4.78721e-06
0.000235366
5.20413e-06
0.000235926
5.60724e-06
0.000236558
5.99236e-06
0.000237262
6.35548e-06
0.000238035
6.69295e-06
0.000238873
7.00162e-06
0.000239769
7.27915e-06
7.52426e-06
0.000240714
0.000240201
-6.12021e-07
0.000240305
-1.16907e-06
0.000240451
-1.6026e-06
0.000240629
-1.92655e-06
0.00024083
-2.14756e-06
0.000241047
-2.26992e-06
0.000241272
-2.29945e-06
0.000241498
-2.24637e-06
0.000241719
-2.12651e-06
0.000241928
-1.96079e-06
0.000242123
-1.77291e-06
0.000242301
-1.58624e-06
0.000242461
-1.42079e-06
0.000242606
-1.29106e-06
0.000242736
-1.20521e-06
0.000242855
-1.16544e-06
0.000242967
-1.16915e-06
0.000243075
-1.21057e-06
0.000243182
-1.28231e-06
0.000243291
-1.37668e-06
0.000243403
-1.48656e-06
0.000243521
-1.60592e-06
0.000243645
-1.72997e-06
0.000243775
-1.85511e-06
0.000243912
-1.97877e-06
0.000244056
-2.09914e-06
0.000244206
-2.215e-06
0.000244362
-2.32552e-06
0.000244523
-2.43009e-06
0.000244688
-2.52824e-06
0.000244857
-2.61957e-06
0.000245029
-2.70368e-06
0.000245202
-2.7802e-06
0.000245377
-2.84872e-06
0.000245552
-2.90881e-06
0.000245726
-2.96003e-06
0.000245898
-3.00194e-06
0.000246069
-3.03405e-06
0.000246236
-3.05589e-06
0.000246399
-3.06697e-06
0.000246557
-3.0668e-06
0.00024671
-3.05488e-06
0.000246856
-3.03072e-06
0.000246995
-2.99383e-06
0.000247126
-2.94371e-06
0.000247249
-2.87989e-06
0.000247363
-2.80189e-06
0.000247468
-2.70926e-06
0.000247563
-2.60155e-06
0.000247649
-2.47835e-06
0.000247726
-2.33927e-06