/*--------------------------------*- C++ -*----------------------------------*\
| =========                 |                                                 |
| \\      /  F ield         | OpenFOAM: The Open Source CFD Toolbox           |
|  \\    /   O peration     | Version:  2106                                  |
|   \\  /    A nd           | Website:  www.openfoam.com                      |
|    \\/     M anipulation  |                                                 |
\*---------------------------------------------------------------------------*/
FoamFile
{
    version     2.0;
    format      ascii;
    arch        "LSB;label=32;scalar=64";
    class       volScalarField;
    location    "1.4";
    object      T;
}
// * * * * * * * * * * * * * * * * * * * * * * * * * * * * * * * * * * * * * //

dimensions      [0 0 0 1 0 0 0];

internalField   nonuniform List<scalar> 
12013
(
300.001
300.002
300.003
300.005
300.006
300.008
300.01
300.012
300.014
300.017
300.019
300.022
300.026
300.029
300.033
300.038
300.043
300.048
300.054
300.06
300.066
300.074
300.081
300.09
300.099
300.108
300.118
300.129
300.141
300.153
300.166
300.18
300.194
300.209
300.226
300.242
300.26
300.279
300.298
300.319
300.34
300.362
300.386
300.41
300.435
300.461
300.488
300.517
300.546
300.576
300.608
300.64
300.674
300.709
300.745
300.783
300.821
300.861
300.903
300.945
300.989
301.035
301.082
301.131
301.182
301.234
301.288
301.344
301.403
301.464
301.527
301.593
301.663
301.736
301.813
301.895
301.983
302.078
302.183
302.303
302.446
300.001
300.002
300.003
300.005
300.006
300.008
300.01
300.012
300.014
300.017
300.019
300.022
300.026
300.029
300.033
300.038
300.043
300.048
300.054
300.06
300.066
300.074
300.081
300.09
300.099
300.108
300.118
300.129
300.141
300.153
300.166
300.18
300.194
300.209
300.226
300.242
300.26
300.279
300.298
300.319
300.34
300.362
300.385
300.41
300.435
300.461
300.488
300.516
300.546
300.576
300.608
300.64
300.674
300.709
300.745
300.782
300.821
300.861
300.902
300.945
300.989
301.034
301.082
301.13
301.181
301.233
301.287
301.343
301.401
301.462
301.525
301.591
301.66
301.733
301.809
301.89
301.976
302.069
302.171
302.282
302.404
300.001
300.002
300.003
300.005
300.006
300.008
300.01
300.012
300.014
300.017
300.019
300.022
300.026
300.029
300.033
300.038
300.043
300.048
300.054
300.06
300.066
300.074
300.081
300.09
300.099
300.108
300.118
300.129
300.141
300.153
300.166
300.18
300.194
300.209
300.225
300.242
300.26
300.279
300.298
300.319
300.34
300.362
300.385
300.409
300.435
300.461
300.488
300.516
300.545
300.576
300.607
300.64
300.673
300.708
300.744
300.782
300.82
300.86
300.901
300.944
300.988
301.033
301.08
301.129
301.179
301.231
301.285
301.341
301.398
301.459
301.521
301.586
301.655
301.726
301.801
301.88
301.963
302.052
302.146
302.246
302.35
300.001
300.002
300.003
300.005
300.006
300.008
300.01
300.012
300.014
300.017
300.019
300.022
300.026
300.029
300.033
300.038
300.043
300.048
300.054
300.06
300.066
300.074
300.081
300.09
300.099
300.108
300.118
300.129
300.141
300.153
300.166
300.179
300.194
300.209
300.225
300.242
300.26
300.278
300.298
300.318
300.34
300.362
300.385
300.409
300.434
300.46
300.487
300.516
300.545
300.575
300.606
300.639
300.672
300.707
300.743
300.78
300.819
300.859
300.9
300.942
300.986
301.031
301.078
301.126
301.176
301.228
301.281
301.336
301.394
301.453
301.515
301.579
301.646
301.715
301.788
301.864
301.944
302.027
302.114
302.203
302.293
300.001
300.002
300.003
300.005
300.006
300.008
300.01
300.012
300.014
300.017
300.019
300.022
300.026
300.029
300.033
300.038
300.043
300.048
300.054
300.06
300.066
300.074
300.081
300.09
300.098
300.108
300.118
300.129
300.14
300.153
300.166
300.179
300.194
300.209
300.225
300.242
300.26
300.278
300.298
300.318
300.339
300.361
300.384
300.408
300.433
300.46
300.487
300.515
300.544
300.574
300.605
300.638
300.671
300.706
300.742
300.779
300.817
300.856
300.897
300.939
300.983
301.028
301.074
301.122
301.172
301.223
301.276
301.33
301.387
301.445
301.506
301.568
301.633
301.701
301.771
301.843
301.918
301.995
302.074
302.154
302.234
300.001
300.002
300.003
300.005
300.006
300.008
300.01
300.012
300.014
300.017
300.019
300.022
300.026
300.029
300.033
300.038
300.043
300.048
300.053
300.06
300.066
300.073
300.081
300.089
300.098
300.108
300.118
300.129
300.14
300.152
300.165
300.179
300.193
300.209
300.225
300.241
300.259
300.278
300.297
300.317
300.338
300.361
300.384
300.408
300.433
300.459
300.486
300.513
300.543
300.573
300.604
300.636
300.669
300.704
300.739
300.776
300.814
300.854
300.894
300.936
300.979
301.024
301.069
301.117
301.166
301.216
301.268
301.322
301.377
301.434
301.493
301.554
301.617
301.682
301.748
301.817
301.887
301.959
302.031
302.103
302.174
300.001
300.002
300.003
300.005
300.006
300.008
300.01
300.012
300.014
300.017
300.019
300.022
300.026
300.029
300.033
300.038
300.042
300.048
300.053
300.06
300.066
300.073
300.081
300.089
300.098
300.108
300.118
300.129
300.14
300.152
300.165
300.179
300.193
300.208
300.224
300.241
300.259
300.277
300.296
300.317
300.338
300.36
300.383
300.407
300.431
300.457
300.484
300.512
300.541
300.571
300.602
300.634
300.667
300.701
300.737
300.773
300.811
300.85
300.89
300.931
300.974
301.018
301.063
301.11
301.158
301.208
301.259
301.311
301.365
301.421
301.478
301.537
301.597
301.659
301.722
301.786
301.851
301.917
301.983
302.049
302.113
300.001
300.002
300.003
300.005
300.006
300.008
300.01
300.012
300.014
300.016
300.019
300.022
300.026
300.029
300.033
300.038
300.042
300.048
300.053
300.059
300.066
300.073
300.081
300.089
300.098
300.107
300.117
300.128
300.14
300.152
300.165
300.178
300.193
300.208
300.224
300.24
300.258
300.276
300.295
300.316
300.337
300.359
300.381
300.405
300.43
300.456
300.482
300.51
300.539
300.568
300.599
300.631
300.664
300.698
300.733
300.769
300.806
300.845
300.885
300.925
300.968
301.011
301.055
301.101
301.148
301.197
301.247
301.298
301.35
301.404
301.459
301.515
301.573
301.631
301.691
301.751
301.812
301.873
301.933
301.993
302.051
300.001
300.002
300.003
300.005
300.006
300.008
300.01
300.012
300.014
300.016
300.019
300.022
300.026
300.029
300.033
300.038
300.042
300.047
300.053
300.059
300.066
300.073
300.081
300.089
300.098
300.107
300.117
300.128
300.139
300.151
300.164
300.178
300.192
300.207
300.223
300.239
300.257
300.275
300.294
300.314
300.335
300.357
300.38
300.403
300.428
300.454
300.48
300.507
300.536
300.565
300.596
300.627
300.66
300.694
300.728
300.764
300.801
300.839
300.878
300.918
300.959
301.002
301.046
301.09
301.136
301.184
301.232
301.281
301.332
301.384
301.437
301.49
301.545
301.6
301.656
301.712
301.769
301.825
301.88
301.935
301.989
300.001
300.002
300.003
300.005
300.006
300.008
300.01
300.012
300.014
300.016
300.019
300.022
300.025
300.029
300.033
300.037
300.042
300.047
300.053
300.059
300.066
300.073
300.08
300.089
300.097
300.107
300.117
300.127
300.139
300.151
300.163
300.177
300.191
300.206
300.222
300.238
300.256
300.274
300.293
300.313
300.334
300.355
300.378
300.401
300.426
300.451
300.477
300.504
300.533
300.562
300.592
300.623
300.655
300.688
300.723
300.758
300.794
300.831
300.87
300.909
300.95
300.991
301.034
301.078
301.122
301.168
301.215
301.262
301.311
301.361
301.411
301.462
301.513
301.565
301.618
301.67
301.722
301.774
301.825
301.876
301.925
300.001
300.002
300.003
300.005
300.006
300.008
300.01
300.012
300.014
300.016
300.019
300.022
300.025
300.029
300.033
300.037
300.042
300.047
300.053
300.059
300.065
300.072
300.08
300.088
300.097
300.106
300.116
300.127
300.138
300.15
300.163
300.176
300.19
300.205
300.221
300.237
300.254
300.272
300.291
300.311
300.332
300.353
300.375
300.399
300.423
300.448
300.474
300.501
300.528
300.557
300.587
300.618
300.649
300.682
300.716
300.75
300.786
300.823
300.86
300.899
300.938
300.979
301.02
301.062
301.106
301.15
301.195
301.24
301.287
301.334
301.382
301.43
301.478
301.527
301.576
301.625
301.673
301.721
301.769
301.815
301.86
300.001
300.002
300.003
300.005
300.006
300.008
300.01
300.012
300.014
300.016
300.019
300.022
300.025
300.029
300.033
300.037
300.042
300.047
300.052
300.058
300.065
300.072
300.08
300.088
300.096
300.106
300.116
300.126
300.137
300.149
300.162
300.175
300.189
300.204
300.219
300.235
300.253
300.27
300.289
300.309
300.329
300.35
300.372
300.395
300.419
300.444
300.47
300.496
300.524
300.552
300.581
300.611
300.643
300.675
300.708
300.741
300.776
300.812
300.849
300.886
300.924
300.964
301.004
301.045
301.086
301.129
301.172
301.215
301.259
301.304
301.349
301.395
301.44
301.486
301.531
301.577
301.622
301.666
301.71
301.753
301.795
300.001
300.002
300.003
300.005
300.006
300.008
300.01
300.012
300.014
300.016
300.019
300.022
300.025
300.029
300.033
300.037
300.042
300.047
300.052
300.058
300.065
300.072
300.079
300.087
300.096
300.105
300.115
300.125
300.136
300.148
300.16
300.174
300.187
300.202
300.217
300.234
300.25
300.268
300.287
300.306
300.326
300.347
300.369
300.391
300.415
300.439
300.465
300.491
300.518
300.546
300.574
300.604
300.634
300.666
300.698
300.731
300.765
300.8
300.835
300.871
300.909
300.946
300.985
301.024
301.064
301.105
301.146
301.187
301.229
301.271
301.314
301.356
301.399
301.442
301.484
301.526
301.568
301.609
301.649
301.689
301.728
300.001
300.002
300.003
300.004
300.006
300.008
300.009
300.011
300.014
300.016
300.019
300.022
300.025
300.028
300.032
300.037
300.041
300.046
300.052
300.058
300.064
300.071
300.078
300.086
300.095
300.104
300.114
300.124
300.135
300.147
300.159
300.172
300.186
300.2
300.215
300.231
300.248
300.265
300.284
300.303
300.323
300.343
300.365
300.387
300.41
300.434
300.459
300.484
300.511
300.538
300.566
300.595
300.625
300.655
300.687
300.719
300.752
300.785
300.82
300.855
300.89
300.927
300.964
301.001
301.039
301.078
301.117
301.156
301.196
301.235
301.275
301.315
301.355
301.395
301.434
301.473
301.512
301.55
301.587
301.624
301.66
300.001
300.002
300.003
300.004
300.006
300.008
300.009
300.011
300.014
300.016
300.019
300.022
300.025
300.028
300.032
300.036
300.041
300.046
300.051
300.057
300.064
300.07
300.078
300.086
300.094
300.103
300.113
300.123
300.134
300.145
300.157
300.17
300.184
300.198
300.213
300.229
300.245
300.262
300.28
300.299
300.318
300.339
300.36
300.382
300.404
300.428
300.452
300.477
300.503
300.529
300.557
300.585
300.614
300.643
300.674
300.705
300.736
300.769
300.802
300.836
300.87
300.905
300.94
300.976
301.012
301.048
301.085
301.122
301.159
301.196
301.234
301.271
301.308
301.345
301.382
301.418
301.454
301.489
301.523
301.557
301.591
300.001
300.002
300.003
300.004
300.006
300.008
300.009
300.011
300.013
300.016
300.018
300.021
300.024
300.028
300.032
300.036
300.041
300.045
300.051
300.057
300.063
300.07
300.077
300.085
300.093
300.102
300.111
300.121
300.132
300.144
300.155
300.168
300.181
300.195
300.21
300.226
300.242
300.259
300.276
300.295
300.314
300.333
300.354
300.375
300.398
300.42
300.444
300.468
300.493
300.519
300.546
300.573
300.601
300.63
300.659
300.689
300.719
300.75
300.782
300.814
300.847
300.88
300.913
300.947
300.981
301.016
301.05
301.085
301.12
301.155
301.19
301.224
301.259
301.293
301.327
301.36
301.394
301.426
301.458
301.49
301.521
300.001
300.002
300.003
300.004
300.006
300.007
300.009
300.011
300.013
300.016
300.018
300.021
300.024
300.028
300.031
300.036
300.04
300.045
300.05
300.056
300.062
300.069
300.076
300.084
300.092
300.101
300.11
300.12
300.13
300.141
300.153
300.166
300.179
300.192
300.207
300.222
300.238
300.254
300.271
300.289
300.308
300.327
300.347
300.368
300.39
300.412
300.435
300.459
300.483
300.508
300.533
300.56
300.587
300.614
300.642
300.671
300.7
300.73
300.76
300.79
300.821
300.853
300.884
300.916
300.948
300.981
301.013
301.046
301.078
301.111
301.143
301.175
301.207
301.239
301.27
301.301
301.332
301.362
301.392
301.421
301.449
300.001
300.002
300.003
300.004
300.006
300.007
300.009
300.011
300.013
300.015
300.018
300.021
300.024
300.027
300.031
300.035
300.039
300.044
300.049
300.055
300.061
300.068
300.075
300.082
300.09
300.099
300.108
300.118
300.128
300.139
300.151
300.163
300.176
300.189
300.203
300.218
300.233
300.249
300.266
300.284
300.302
300.32
300.34
300.36
300.381
300.402
300.425
300.447
300.471
300.495
300.519
300.545
300.57
300.597
300.624
300.651
300.679
300.707
300.735
300.764
300.794
300.823
300.853
300.883
300.913
300.943
300.973
301.004
301.034
301.064
301.094
301.124
301.153
301.183
301.212
301.24
301.268
301.296
301.324
301.35
301.377
300.001
300.002
300.003
300.004
300.006
300.007
300.009
300.011
300.013
300.015
300.018
300.02
300.024
300.027
300.031
300.034
300.039
300.044
300.049
300.054
300.06
300.067
300.073
300.081
300.089
300.097
300.106
300.116
300.126
300.136
300.148
300.159
300.172
300.185
300.199
300.213
300.228
300.244
300.26
300.277
300.294
300.313
300.331
300.351
300.371
300.392
300.413
300.435
300.457
300.48
300.504
300.528
300.552
300.577
300.603
300.629
300.655
300.682
300.709
300.736
300.763
300.791
300.819
300.847
300.875
300.903
300.931
300.959
300.987
301.015
301.043
301.07
301.098
301.125
301.151
301.178
301.204
301.229
301.254
301.279
301.303
300.001
300.002
300.003
300.004
300.006
300.007
300.009
300.011
300.013
300.015
300.017
300.02
300.023
300.026
300.03
300.034
300.038
300.043
300.048
300.053
300.059
300.065
300.072
300.079
300.087
300.095
300.104
300.113
300.123
300.133
300.144
300.156
300.168
300.18
300.194
300.208
300.222
300.237
300.253
300.269
300.286
300.304
300.322
300.34
300.36
300.379
300.4
300.421
300.442
300.464
300.486
300.509
300.533
300.556
300.58
300.605
300.629
300.654
300.68
300.705
300.731
300.757
300.783
300.809
300.835
300.861
300.887
300.913
300.939
300.964
300.99
301.015
301.04
301.065
301.09
301.114
301.138
301.161
301.184
301.207
301.229
300.001
300.002
300.003
300.004
300.005
300.007
300.009
300.01
300.012
300.015
300.017
300.02
300.023
300.026
300.029
300.033
300.037
300.042
300.047
300.052
300.058
300.064
300.07
300.077
300.085
300.093
300.101
300.11
300.12
300.13
300.14
300.151
300.163
300.175
300.188
300.202
300.215
300.23
300.245
300.261
300.277
300.294
300.311
300.329
300.347
300.366
300.385
300.405
300.426
300.446
300.467
300.489
300.511
300.533
300.556
300.579
300.602
300.625
300.649
300.672
300.696
300.72
300.744
300.768
300.793
300.817
300.841
300.864
300.888
300.912
300.935
300.959
300.982
301.004
301.027
301.049
301.071
301.092
301.113
301.134
301.154
300.001
300.002
300.003
300.004
300.005
300.007
300.008
300.01
300.012
300.014
300.017
300.019
300.022
300.025
300.029
300.032
300.036
300.041
300.045
300.05
300.056
300.062
300.068
300.075
300.082
300.09
300.098
300.107
300.116
300.126
300.136
300.147
300.158
300.17
300.182
300.195
300.208
300.222
300.236
300.251
300.267
300.283
300.299
300.316
300.333
300.351
300.37
300.388
300.407
300.427
300.447
300.467
300.487
300.508
300.529
300.551
300.572
300.594
300.616
300.638
300.66
300.682
300.704
300.726
300.748
300.77
300.793
300.814
300.836
300.858
300.879
300.9
300.921
300.942
300.963
300.983
301.003
301.022
301.042
301.061
301.079
300.001
300.002
300.003
300.004
300.005
300.007
300.008
300.01
300.012
300.014
300.016
300.019
300.021
300.024
300.028
300.031
300.035
300.039
300.044
300.049
300.054
300.06
300.066
300.073
300.08
300.087
300.095
300.103
300.112
300.121
300.131
300.141
300.152
300.163
300.175
300.187
300.2
300.213
300.227
300.241
300.255
300.27
300.286
300.302
300.318
300.335
300.352
300.37
300.388
300.406
300.424
300.443
300.462
300.482
300.501
300.521
300.541
300.561
300.581
300.601
300.622
300.642
300.662
300.682
300.703
300.723
300.743
300.763
300.783
300.802
300.822
300.841
300.86
300.879
300.898
300.916
300.934
300.952
300.97
300.987
301.004
300
300.002
300.003
300.004
300.005
300.006
300.008
300.01
300.011
300.013
300.016
300.018
300.021
300.024
300.027
300.03
300.034
300.038
300.042
300.047
300.052
300.058
300.064
300.07
300.076
300.084
300.091
300.099
300.107
300.116
300.125
300.135
300.145
300.156
300.167
300.179
300.191
300.203
300.216
300.229
300.243
300.257
300.272
300.287
300.302
300.318
300.334
300.35
300.367
300.383
300.401
300.418
300.436
300.454
300.471
300.49
300.508
300.526
300.545
300.563
300.582
300.6
300.619
300.637
300.656
300.674
300.692
300.71
300.728
300.746
300.764
300.781
300.798
300.816
300.832
300.849
300.865
300.881
300.897
300.913
300.928
300
300.001
300.003
300.004
300.005
300.006
300.008
300.009
300.011
300.013
300.015
300.017
300.02
300.023
300.026
300.029
300.033
300.036
300.041
300.045
300.05
300.055
300.061
300.067
300.073
300.08
300.087
300.094
300.102
300.111
300.119
300.129
300.138
300.148
300.159
300.17
300.181
300.192
300.204
300.217
300.23
300.243
300.256
300.27
300.285
300.299
300.314
300.329
300.344
300.36
300.376
300.391
300.408
300.424
300.44
300.457
300.474
300.49
300.507
300.524
300.541
300.557
300.574
300.591
300.608
300.624
300.641
300.657
300.673
300.689
300.705
300.721
300.736
300.752
300.767
300.782
300.796
300.811
300.825
300.839
300.853
300
300.001
300.002
300.003
300.005
300.006
300.007
300.009
300.01
300.012
300.014
300.017
300.019
300.022
300.025
300.028
300.031
300.035
300.039
300.043
300.048
300.053
300.058
300.063
300.069
300.076
300.082
300.089
300.097
300.105
300.113
300.122
300.131
300.14
300.15
300.16
300.17
300.181
300.192
300.204
300.216
300.228
300.24
300.253
300.266
300.279
300.293
300.307
300.321
300.335
300.349
300.364
300.378
300.393
300.408
300.423
300.438
300.453
300.468
300.484
300.499
300.514
300.529
300.544
300.559
300.574
300.588
300.603
300.618
300.632
300.646
300.66
300.674
300.688
300.701
300.715
300.728
300.741
300.754
300.766
300.779
300
300.001
300.002
300.003
300.004
300.006
300.007
300.008
300.01
300.012
300.014
300.016
300.018
300.02
300.023
300.026
300.029
300.033
300.037
300.041
300.045
300.05
300.055
300.06
300.065
300.071
300.077
300.084
300.091
300.098
300.106
300.114
300.122
300.131
300.14
300.149
300.159
300.169
300.179
300.19
300.2
300.212
300.223
300.235
300.247
300.259
300.271
300.283
300.296
300.309
300.322
300.335
300.348
300.362
300.375
300.389
300.402
300.416
300.429
300.443
300.456
300.47
300.483
300.497
300.51
300.523
300.536
300.549
300.562
300.575
300.588
300.6
300.612
300.625
300.637
300.649
300.66
300.672
300.683
300.694
300.705
300
300.001
300.002
300.003
300.004
300.005
300.007
300.008
300.009
300.011
300.013
300.015
300.017
300.019
300.022
300.025
300.028
300.031
300.034
300.038
300.042
300.046
300.051
300.056
300.061
300.066
300.072
300.078
300.085
300.091
300.098
300.106
300.113
300.121
300.13
300.138
300.147
300.156
300.165
300.175
300.185
300.195
300.205
300.216
300.226
300.237
300.248
300.26
300.271
300.282
300.294
300.306
300.318
300.33
300.342
300.354
300.366
300.378
300.39
300.402
300.414
300.426
300.437
300.449
300.461
300.473
300.484
300.496
300.507
300.518
300.53
300.541
300.552
300.562
300.573
300.583
300.594
300.604
300.614
300.624
300.633
300
300.001
300.002
300.003
300.004
300.005
300.006
300.007
300.009
300.01
300.012
300.014
300.016
300.018
300.02
300.023
300.026
300.029
300.032
300.035
300.039
300.043
300.047
300.052
300.056
300.061
300.067
300.072
300.078
300.084
300.091
300.097
300.104
300.111
300.119
300.126
300.134
300.143
300.151
300.16
300.168
300.177
300.187
300.196
300.206
300.215
300.225
300.235
300.245
300.256
300.266
300.276
300.287
300.297
300.308
300.318
300.329
300.339
300.35
300.361
300.371
300.382
300.392
300.402
300.413
300.423
300.433
300.443
300.453
300.463
300.473
300.482
300.492
300.501
300.511
300.52
300.529
300.538
300.546
300.555
300.563
300
300.001
300.002
300.003
300.004
300.005
300.006
300.007
300.008
300.01
300.011
300.013
300.015
300.017
300.019
300.021
300.024
300.026
300.029
300.032
300.036
300.039
300.043
300.047
300.052
300.056
300.061
300.066
300.071
300.077
300.082
300.088
300.095
300.101
300.108
300.114
300.122
300.129
300.136
300.144
300.152
300.16
300.168
300.176
300.185
300.193
300.202
300.211
300.22
300.229
300.238
300.247
300.256
300.265
300.274
300.283
300.293
300.302
300.311
300.32
300.329
300.339
300.348
300.357
300.366
300.374
300.383
300.392
300.401
300.409
300.418
300.426
300.434
300.442
300.45
300.458
300.466
300.474
300.481
300.489
300.496
300
300.001
300.002
300.002
300.003
300.004
300.005
300.006
300.007
300.009
300.01
300.012
300.013
300.015
300.017
300.019
300.021
300.024
300.027
300.029
300.032
300.036
300.039
300.043
300.047
300.051
300.055
300.059
300.064
300.069
300.074
300.079
300.085
300.09
300.096
300.102
300.109
300.115
300.122
300.128
300.135
300.142
300.149
300.156
300.164
300.171
300.179
300.186
300.194
300.202
300.21
300.218
300.226
300.233
300.241
300.249
300.257
300.265
300.273
300.281
300.289
300.297
300.304
300.312
300.32
300.327
300.335
300.342
300.35
300.357
300.364
300.372
300.379
300.386
300.392
300.399
300.406
300.412
300.419
300.425
300.432
300
300.001
300.002
300.002
300.003
300.004
300.005
300.006
300.007
300.008
300.009
300.01
300.012
300.014
300.015
300.017
300.019
300.021
300.024
300.026
300.029
300.032
300.035
300.038
300.041
300.045
300.049
300.053
300.057
300.061
300.066
300.07
300.075
300.08
300.085
300.09
300.096
300.101
300.107
300.113
300.119
300.125
300.131
300.137
300.143
300.15
300.156
300.163
300.169
300.176
300.183
300.189
300.196
300.203
300.21
300.216
300.223
300.23
300.237
300.243
300.25
300.257
300.263
300.27
300.276
300.283
300.289
300.295
300.302
300.308
300.314
300.32
300.326
300.332
300.338
300.343
300.349
300.355
300.36
300.365
300.371
300
300.001
300.001
300.002
300.003
300.003
300.004
300.005
300.006
300.007
300.008
300.009
300.011
300.012
300.014
300.015
300.017
300.019
300.021
300.023
300.026
300.028
300.031
300.033
300.036
300.039
300.043
300.046
300.05
300.053
300.057
300.061
300.065
300.069
300.074
300.078
300.083
300.088
300.093
300.097
300.102
300.108
300.113
300.118
300.123
300.129
300.134
300.14
300.145
300.151
300.157
300.162
300.168
300.174
300.179
300.185
300.191
300.196
300.202
300.207
300.213
300.219
300.224
300.23
300.235
300.24
300.246
300.251
300.256
300.261
300.267
300.272
300.277
300.282
300.286
300.291
300.296
300.301
300.305
300.31
300.314
300
300.001
300.001
300.002
300.002
300.003
300.004
300.004
300.005
300.006
300.007
300.008
300.009
300.01
300.012
300.013
300.015
300.016
300.018
300.02
300.022
300.024
300.026
300.029
300.031
300.034
300.037
300.04
300.043
300.046
300.049
300.052
300.056
300.059
300.063
300.067
300.071
300.075
300.079
300.083
300.087
300.091
300.096
300.1
300.105
300.109
300.114
300.118
300.123
300.127
300.132
300.137
300.142
300.146
300.151
300.156
300.16
300.165
300.17
300.174
300.179
300.183
300.188
300.192
300.197
300.201
300.206
300.21
300.214
300.219
300.223
300.227
300.231
300.235
300.239
300.243
300.247
300.251
300.255
300.258
300.262
300
300.001
300.001
300.002
300.002
300.003
300.003
300.004
300.004
300.005
300.006
300.007
300.008
300.009
300.01
300.011
300.013
300.014
300.016
300.017
300.019
300.021
300.023
300.025
300.027
300.029
300.031
300.034
300.036
300.039
300.041
300.044
300.047
300.05
300.053
300.056
300.059
300.063
300.066
300.069
300.073
300.076
300.08
300.083
300.087
300.091
300.095
300.098
300.102
300.106
300.11
300.113
300.117
300.121
300.125
300.129
300.132
300.136
300.14
300.144
300.148
300.151
300.155
300.159
300.162
300.166
300.169
300.173
300.176
300.18
300.183
300.187
300.19
300.193
300.196
300.2
300.203
300.206
300.209
300.212
300.215
300
300.001
300.001
300.001
300.002
300.002
300.003
300.003
300.004
300.004
300.005
300.006
300.007
300.008
300.008
300.009
300.011
300.012
300.013
300.014
300.016
300.017
300.019
300.02
300.022
300.024
300.026
300.028
300.03
300.032
300.034
300.036
300.039
300.041
300.044
300.046
300.049
300.051
300.054
300.057
300.06
300.063
300.065
300.068
300.071
300.074
300.077
300.08
300.083
300.086
300.089
300.092
300.095
300.098
300.102
300.105
300.108
300.111
300.114
300.117
300.12
300.123
300.125
300.128
300.131
300.134
300.137
300.14
300.143
300.145
300.148
300.151
300.153
300.156
300.159
300.161
300.164
300.166
300.169
300.171
300.173
300
300
300.001
300.001
300.001
300.002
300.002
300.003
300.003
300.004
300.004
300.005
300.006
300.006
300.007
300.008
300.009
300.01
300.011
300.012
300.013
300.014
300.015
300.017
300.018
300.02
300.021
300.023
300.024
300.026
300.028
300.03
300.032
300.033
300.035
300.037
300.04
300.042
300.044
300.046
300.048
300.05
300.053
300.055
300.057
300.06
300.062
300.064
300.067
300.069
300.072
300.074
300.076
300.079
300.081
300.084
300.086
300.088
300.091
300.093
300.095
300.098
300.1
300.102
300.105
300.107
300.109
300.111
300.113
300.116
300.118
300.12
300.122
300.124
300.126
300.128
300.13
300.132
300.134
300.136
300.138
300
300
300.001
300.001
300.001
300.001
300.002
300.002
300.003
300.003
300.003
300.004
300.005
300.005
300.006
300.006
300.007
300.008
300.009
300.01
300.01
300.011
300.012
300.014
300.015
300.016
300.017
300.018
300.02
300.021
300.022
300.024
300.025
300.027
300.028
300.03
300.032
300.033
300.035
300.037
300.038
300.04
300.042
300.044
300.046
300.047
300.049
300.051
300.053
300.055
300.057
300.059
300.06
300.062
300.064
300.066
300.068
300.07
300.072
300.073
300.075
300.077
300.079
300.081
300.082
300.084
300.086
300.088
300.089
300.091
300.093
300.094
300.096
300.098
300.099
300.101
300.102
300.104
300.105
300.107
300.108
300
300
300
300.001
300.001
300.001
300.001
300.002
300.002
300.002
300.003
300.003
300.004
300.004
300.005
300.005
300.006
300.006
300.007
300.008
300.009
300.009
300.01
300.011
300.012
300.013
300.014
300.015
300.016
300.017
300.018
300.019
300.02
300.022
300.023
300.024
300.025
300.027
300.028
300.029
300.031
300.032
300.033
300.035
300.036
300.038
300.039
300.041
300.042
300.044
300.045
300.046
300.048
300.049
300.051
300.052
300.054
300.055
300.057
300.058
300.06
300.061
300.062
300.064
300.065
300.066
300.068
300.069
300.07
300.072
300.073
300.074
300.076
300.077
300.078
300.079
300.081
300.082
300.083
300.084
300.085
300
300
300
300.001
300.001
300.001
300.001
300.001
300.002
300.002
300.002
300.003
300.003
300.003
300.004
300.004
300.005
300.005
300.006
300.006
300.007
300.008
300.008
300.009
300.01
300.011
300.011
300.012
300.013
300.014
300.015
300.016
300.017
300.018
300.019
300.02
300.021
300.022
300.023
300.024
300.025
300.026
300.027
300.029
300.03
300.031
300.032
300.033
300.034
300.036
300.037
300.038
300.039
300.04
300.041
300.043
300.044
300.045
300.046
300.047
300.048
300.05
300.051
300.052
300.053
300.054
300.055
300.056
300.057
300.058
300.059
300.06
300.061
300.062
300.063
300.064
300.065
300.066
300.067
300.068
300.069
300
300
300
300.001
300.001
300.001
300.001
300.001
300.002
300.002
300.002
300.002
300.003
300.003
300.003
300.004
300.004
300.005
300.005
300.006
300.006
300.007
300.007
300.008
300.009
300.009
300.01
300.011
300.012
300.012
300.013
300.014
300.015
300.016
300.017
300.017
300.018
300.019
300.02
300.021
300.022
300.023
300.024
300.025
300.026
300.027
300.028
300.029
300.03
300.031
300.032
300.033
300.034
300.035
300.036
300.037
300.038
300.039
300.04
300.041
300.042
300.043
300.044
300.045
300.046
300.047
300.048
300.049
300.05
300.051
300.052
300.053
300.054
300.055
300.056
300.056
300.057
300.058
300.059
300.06
300.06
302.635
302.76
302.834
302.902
302.962
303.011
303.043
303.079
303.116
303.15
303.178
303.209
303.24
303.27
303.3
303.329
303.356
303.38
303.405
303.431
303.455
303.48
303.504
303.528
303.552
303.576
303.598
303.62
303.642
303.663
303.684
303.705
303.725
303.745
303.765
303.783
303.802
303.821
303.839
303.857
303.874
303.891
303.909
303.927
303.945
303.962
303.977
303.994
304.011
304.027
304.042
304.056
304.071
304.086
304.102
304.117
304.132
304.147
304.161
304.174
304.186
304.198
304.211
304.223
304.236
304.248
304.261
304.272
304.284
304.295
304.306
304.316
304.327
304.337
304.346
304.356
304.365
304.374
304.382
304.391
304.401
304.41
304.417
304.425
304.431
304.438
304.445
304.452
304.459
304.464
304.469
304.475
304.481
304.486
304.491
304.497
304.502
304.506
304.51
304.514
304.517
304.521
304.524
304.527
304.53
304.533
304.536
304.537
304.54
304.541
304.543
304.545
304.546
304.548
304.549
304.55
304.551
304.551
304.552
304.552
304.552
304.552
304.552
304.551
304.55
304.549
304.548
304.546
304.543
304.54
304.537
304.533
304.528
304.523
304.517
304.51
304.503
304.494
304.485
304.475
304.463
304.451
304.437
304.421
304.404
304.386
304.365
304.342
304.316
304.286
304.25
304.212
304.174
304.131
304.081
304.024
303.961
303.851
303.748
303.615
303.434
302.536
302.645
302.73
302.801
302.863
302.914
302.957
302.998
303.036
303.072
303.105
303.137
303.169
303.201
303.231
303.261
303.289
303.315
303.341
303.367
303.392
303.418
303.443
303.467
303.491
303.515
303.538
303.56
303.583
303.604
303.626
303.647
303.667
303.687
303.707
303.726
303.746
303.764
303.783
303.801
303.819
303.836
303.854
303.872
303.89
303.907
303.923
303.939
303.956
303.972
303.988
304.003
304.018
304.033
304.048
304.063
304.078
304.093
304.107
304.121
304.133
304.145
304.158
304.171
304.183
304.196
304.208
304.22
304.231
304.243
304.254
304.264
304.274
304.285
304.294
304.304
304.313
304.322
304.331
304.34
304.349
304.358
304.366
304.373
304.38
304.386
304.393
304.401
304.407
304.413
304.418
304.424
304.43
304.435
304.44
304.446
304.45
304.455
304.459
304.463
304.466
304.47
304.473
304.476
304.479
304.482
304.485
304.487
304.489
304.491
304.492
304.494
304.496
304.497
304.498
304.499
304.5
304.501
304.501
304.501
304.501
304.501
304.501
304.5
304.499
304.498
304.497
304.495
304.492
304.489
304.486
304.482
304.477
304.472
304.466
304.46
304.452
304.444
304.434
304.424
304.413
304.4
304.386
304.371
304.354
304.335
304.314
304.291
304.265
304.235
304.199
304.162
304.123
304.078
304.028
303.969
303.901
303.795
303.687
303.547
303.35
302.455
302.55
302.632
302.704
302.766
302.821
302.869
302.913
302.953
302.991
303.027
303.062
303.095
303.127
303.159
303.189
303.218
303.246
303.273
303.3
303.326
303.352
303.377
303.402
303.427
303.451
303.474
303.497
303.52
303.542
303.563
303.585
303.605
303.626
303.646
303.666
303.685
303.704
303.723
303.741
303.759
303.777
303.795
303.813
303.831
303.848
303.865
303.881
303.898
303.914
303.93
303.945