/*--------------------------------*- C++ -*----------------------------------*\
| =========                 |                                                 |
| \\      /  F ield         | OpenFOAM: The Open Source CFD Toolbox           |
|  \\    /   O peration     | Version:  2106                                  |
|   \\  /    A nd           | Website:  www.openfoam.com                      |
|    \\/     M anipulation  |                                                 |
\*---------------------------------------------------------------------------*/
FoamFile
{
    version     2.0;
    format      ascii;
    arch        "LSB;label=32;scalar=64";
    class       volVectorField;
    location    "1.4";
    object      U;
}
// * * * * * * * * * * * * * * * * * * * * * * * * * * * * * * * * * * * * * //

dimensions      [0 1 -1 0 0 0 0];

internalField   nonuniform List<vector> 
12013
(
(0.100011 -2.94267e-06 0)
(0.100054 -5.34627e-06 0)
(0.100121 -7.33119e-06 0)
(0.100205 -8.84392e-06 0)
(0.1003 -9.89804e-06 0)
(0.100402 -1.04885e-05 0)
(0.100504 -1.06223e-05 0)
(0.100605 -1.03439e-05 0)
(0.100699 -9.73994e-06 0)
(0.100784 -8.93399e-06 0)
(0.100861 -8.06876e-06 0)
(0.100929 -7.2835e-06 0)
(0.10099 -6.69415e-06 0)
(0.101046 -6.37823e-06 0)
(0.101099 -6.37354e-06 0)
(0.101154 -6.68015e-06 0)
(0.101211 -7.26974e-06 0)
(0.101272 -8.09906e-06 0)
(0.10134 -9.11883e-06 0)
(0.101415 -1.02824e-05 0)
(0.101497 -1.15497e-05 0)
(0.101588 -1.28908e-05 0)
(0.101686 -1.4284e-05 0)
(0.101793 -1.57155e-05 0)
(0.101907 -1.71776e-05 0)
(0.102029 -1.86657e-05 0)
(0.102159 -2.01777e-05 0)
(0.102296 -2.17126e-05 0)
(0.10244 -2.32683e-05 0)
(0.102591 -2.48434e-05 0)
(0.102749 -2.64349e-05 0)
(0.102914 -2.80384e-05 0)
(0.103085 -2.96495e-05 0)
(0.103261 -3.12621e-05 0)
(0.103444 -3.2869e-05 0)
(0.103632 -3.44626e-05 0)
(0.103825 -3.60334e-05 0)
(0.104023 -3.75713e-05 0)
(0.104225 -3.90654e-05 0)
(0.10443 -4.05023e-05 0)
(0.104639 -4.18684e-05 0)
(0.104851 -4.31472e-05 0)
(0.105064 -4.43218e-05 0)
(0.105279 -4.53719e-05 0)
(0.105495 -4.62756e-05 0)
(0.105711 -4.70078e-05 0)
(0.105925 -4.75405e-05 0)
(0.106138 -4.78419e-05 0)
(0.106348 -4.78762e-05 0)
(0.106554 -4.76021e-05 0)
(0.106755 -4.69727e-05 0)
(0.10695 -4.59353e-05 0)
(0.107136 -4.44267e-05 0)
(0.107313 -4.23758e-05 0)
(0.107479 -3.96987e-05 0)
(0.107632 -3.62975e-05 0)
(0.107769 -3.20561e-05 0)
(0.107888 -2.68374e-05 0)
(0.107987 -2.04763e-05 0)
(0.108061 -1.27738e-05 0)
(0.108108 -3.488e-06 0)
(0.108123 7.68356e-06 0)
(0.108101 2.11194e-05 0)
(0.108036 3.72928e-05 0)
(0.107921 5.68065e-05 0)
(0.107748 8.04401e-05 0)
(0.107506 0.000109219 0)
(0.107182 0.000144512 0)
(0.106759 0.000188184 0)
(0.106218 0.000242823 0)
(0.105531 0.000312104 0)
(0.104661 0.000401371 0)
(0.10356 0.000518588 0)
(0.102159 0.000675945 0)
(0.100361 0.000892617 0)
(0.0980225 0.00119957 0)
(0.0949312 0.00164821 0)
(0.0907442 0.00232843 0)
(0.0849179 0.00342455 0)
(0.0767821 0.005456 0)
(0.0675708 0.0107731 0)
(0.10001 -9.00288e-06 0)
(0.100053 -1.64074e-05 0)
(0.100121 -2.25072e-05 0)
(0.100204 -2.71518e-05 0)
(0.100299 -3.03901e-05 0)
(0.100401 -3.22051e-05 0)
(0.100503 -3.26184e-05 0)
(0.100604 -3.17649e-05 0)
(0.100698 -2.99113e-05 0)
(0.100784 -2.74363e-05 0)
(0.10086 -2.47775e-05 0)
(0.100928 -2.23631e-05 0)
(0.100989 -2.05479e-05 0)
(0.101045 -1.95724e-05 0)
(0.101098 -1.9551e-05 0)
(0.101152 -2.0484e-05 0)
(0.101209 -2.22866e-05 0)
(0.10127 -2.48251e-05 0)
(0.101337 -2.79481e-05 0)
(0.101412 -3.15121e-05 0)
(0.101494 -3.53951e-05 0)
(0.101584 -3.95037e-05 0)
(0.101681 -4.37721e-05 0)
(0.101787 -4.81583e-05 0)
(0.101901 -5.26376e-05 0)
(0.102022 -5.71962e-05 0)
(0.102151 -6.18276e-05 0)
(0.102287 -6.65281e-05 0)
(0.10243 -7.12924e-05 0)
(0.10258 -7.61148e-05 0)
(0.102737 -8.09861e-05 0)
(0.1029 -8.58947e-05 0)
(0.10307 -9.08252e-05 0)
(0.103245 -9.57589e-05 0)
(0.103426 -0.000100675 0)
(0.103613 -0.000105548 0)
(0.103804 -0.000110352 0)
(0.104 -0.000115053 0)
(0.104201 -0.000119618 0)
(0.104404 -0.000124007 0)
(0.104611 -0.000128178 0)
(0.104821 -0.000132081 0)
(0.105033 -0.000135662 0)
(0.105245 -0.000138861 0)
(0.105459 -0.00014161 0)
(0.105672 -0.000143831 0)
(0.105885 -0.000145441 0)
(0.106095 -0.000146341 0)
(0.106303 -0.000146421 0)
(0.106506 -0.000145556 0)
(0.106704 -0.000143602 0)
(0.106896 -0.000140397 0)
(0.10708 -0.00013575 0)
(0.107255 -0.000129443 0)
(0.107418 -0.00012122 0)
(0.107568 -0.000110782 0)
(0.107703 -9.7777e-05 0)
(0.107819 -8.17863e-05 0)
(0.107916 -6.2309e-05 0)
(0.107988 -3.87407e-05 0)
(0.108034 -1.03463e-05 0)
(0.108048 2.37876e-05 0)
(0.108025 6.4799e-05 0)
(0.107961 0.000114109 0)
(0.107848 0.000173524 0)
(0.107678 0.00024537 0)
(0.107442 0.000332692 0)
(0.107128 0.00043953 0)
(0.10672 0.000571349 0)
(0.1062 0.000735671 0)
(0.105544 0.000943056 0)
(0.104722 0.00120864 0)
(0.103693 0.0015546 0)
(0.102404 0.00201408 0)
(0.100784 0.00263759 0)
(0.0987366 0.00350319 0)
(0.096138 0.00473193 0)
(0.0928215 0.00650997 0)
(0.0885971 0.00911983 0)
(0.0835107 0.0129127 0)
(0.0790902 0.0178173 0)
(0.10001 -1.53668e-05 0)
(0.100052 -2.82004e-05 0)
(0.10012 -3.87123e-05 0)
(0.100203 -4.67166e-05 0)
(0.100298 -5.23009e-05 0)
(0.100399 -5.54357e-05 0)
(0.100502 -5.61578e-05 0)
(0.100602 -5.46976e-05 0)
(0.100696 -5.15119e-05 0)
(0.100782 -4.72512e-05 0)
(0.100859 -4.26678e-05 0)
(0.100927 -3.84979e-05 0)
(0.100987 -3.53525e-05 0)
(0.101043 -3.36477e-05 0)
(0.101096 -3.35807e-05 0)
(0.10115 -3.51532e-05 0)
(0.101206 -3.82221e-05 0)
(0.101267 -4.25571e-05 0)
(0.101333 -4.78984e-05 0)
(0.101407 -5.3999e-05 0)
(0.101488 -6.0649e-05 0)
(0.101576 -6.7687e-05 0)
(0.101673 -7.49997e-05 0)
(0.101777 -8.2514e-05 0)
(0.101889 -9.01863e-05 0)
(0.102009 -9.79939e-05 0)
(0.102136 -0.000105925 0)
(0.10227 -0.000113971 0)
(0.102412 -0.000122124 0)
(0.10256 -0.000130375 0)
(0.102714 -0.000138706 0)
(0.102875 -0.000147098 0)
(0.103042 -0.000155524 0)
(0.103215 -0.000163952 0)
(0.103394 -0.000172346 0)
(0.103577 -0.000180662 0)
(0.103765 -0.000188855 0)
(0.103958 -0.000196869 0)
(0.104155 -0.000204643 0)
(0.104355 -0.000212112 0)
(0.104559 -0.000219201 0)
(0.104764 -0.000225825 0)
(0.104972 -0.000231894 0)
(0.105181 -0.000237301 0)
(0.10539 -0.000241931 0)
(0.105599 -0.000245653 0)
(0.105806 -0.00024832 0)
(0.106012 -0.000249765 0)
(0.106215 -0.000249801 0)
(0.106413 -0.000248214 0)
(0.106606 -0.000244758 0)
(0.106793 -0.000239156 0)
(0.106971 -0.000231085 0)
(0.107141 -0.000220173 0)
(0.107298 -0.000205988 0)
(0.107443 -0.000188022 0)
(0.107573 -0.00016568 0)
(0.107685 -0.000138257 0)
(0.107776 -0.000104909 0)
(0.107845 -6.46228e-05 0)
(0.107887 -1.61668e-05 0)
(0.107898 4.19783e-05 0)
(0.107874 0.000111692 0)
(0.10781 0.000195315 0)
(0.1077 0.000295798 0)
(0.107536 0.000416917 0)
(0.107309 0.00056356 0)
(0.10701 0.000742148 0)
(0.106626 0.00096123 0)
(0.106142 0.00123237 0)
(0.105539 0.00157146 0)
(0.104796 0.00200063 0)
(0.103885 0.0025512 0)
(0.102773 0.00326788 0)
(0.101425 0.00421491 0)
(0.099802 0.00548389 0)
(0.0978758 0.00720156 0)
(0.0956442 0.00953106 0)
(0.0931818 0.0126501 0)
(0.0907898 0.0166192 0)
(0.0892992 0.0208101 0)
(0.100009 -2.20096e-05 0)
(0.100051 -4.07274e-05 0)
(0.100118 -5.596e-05 0)
(0.100201 -6.75769e-05 0)
(0.100296 -7.56874e-05 0)
(0.100396 -8.02528e-05 0)
(0.100499 -8.13266e-05 0)
(0.100599 -7.92384e-05 0)
(0.100694 -7.46449e-05 0)
(0.10078 -6.84832e-05 0)
(0.100857 -6.18388e-05 0)
(0.100925 -5.57757e-05 0)
(0.100986 -5.11794e-05 0)
(0.101041 -4.86535e-05 0)
(0.101095 -4.84877e-05 0)
(0.101148 -5.06888e-05 0)
(0.101203 -5.5052e-05 0)
(0.101263 -6.12475e-05 0)
(0.101328 -6.89014e-05 0)
(0.101401 -7.76559e-05 0)
(0.10148 -8.72074e-05 0)
(0.101567 -9.73218e-05 0)
(0.101662 -0.000107833 0)
(0.101764 -0.000118635 0)
(0.101874 -0.000129663 0)
(0.101991 -0.000140882 0)
(0.102116 -0.000152275 0)
(0.102248 -0.000163829 0)
(0.102386 -0.000175532 0)
(0.102531 -0.000187368 0)
(0.102683 -0.000199315 0)
(0.10284 -0.000211341 0)
(0.103004 -0.000223409 0)
(0.103173 -0.000235472 0)
(0.103347 -0.000247477 0)
(0.103526 -0.000259363 0)
(0.10371 -0.00027106 0)
(0.103899 -0.00028249 0)
(0.10409 -0.000293566 0)
(0.104286 -0.000304191 0)
(0.104483 -0.000314258 0)
(0.104684 -0.000323646 0)
(0.104885 -0.000332221 0)
(0.105088 -0.000339833 0)
(0.105291 -0.000346314 0)
(0.105493 -0.000351478 0)
(0.105694 -0.000355111 0)
(0.105893 -0.000356976 0)
(0.106088 -0.000356804 0)
(0.106279 -0.000354287 0)
(0.106465 -0.000349079 0)
(0.106644 -0.00034078 0)
(0.106815 -0.000328934 0)
(0.106976 -0.00031301 0)
(0.107126 -0.000292398 0)
(0.107264 -0.000266382 0)
(0.107386 -0.000234122 0)
(0.107491 -0.000194628 0)
(0.107576 -0.000146722 0)
(0.107639 -8.89925e-05 0)
(0.107676 -1.97307e-05 0)
(0.107684 6.31523e-05 0)
(0.107659 0.000162218 0)
(0.107596 0.000280631 0)
(0.107489 0.00042235 0)
(0.107334 0.000592375 0)
(0.107123 0.000797095 0)
(0.106847 0.00104475 0)
(0.106498 0.00134611 0)
(0.106065 0.00171534 0)
(0.105536 0.00217135 0)
(0.104899 0.00273948 0)
(0.104141 0.0034539 0)
(0.103251 0.00436053 0)
(0.102223 0.00552036 0)
(0.101067 0.00701162 0)
(0.099814 0.00892702 0)
(0.0985436 0.0113569 0)
(0.0974078 0.0143396 0)
(0.096665 0.0177317 0)
(0.0966506 0.0209044 0)
(0.100009 -2.89569e-05 0)
(0.10005 -5.40027e-05 0)
(0.100116 -7.42821e-05 0)
(0.100199 -8.97851e-05 0)
(0.100293 -0.000100623 0)
(0.100394 -0.00010675 0)
(0.100496 -0.000108237 0)
(0.100596 -0.000105516 0)
(0.100691 -9.94525e-05 0)
(0.100777 -9.12812e-05 0)
(0.100854 -8.24388e-05 0)
(0.100923 -7.43361e-05 0)
(0.100984 -6.81505e-05 0)
(0.10104 -6.46887e-05 0)
(0.101093 -6.43433e-05 0)
(0.101146 -6.71312e-05 0)
(0.101201 -7.27876e-05 0)
(0.101259 -8.08796e-05 0)
(0.101324 -9.0914e-05 0)
(0.101394 -0.000102417 0)
(0.101472 -0.000114984 0)
(0.101557 -0.000128303 0)
(0.101649 -0.000142151 0)
(0.101749 -0.000156384 0)
(0.101856 -0.000170913 0)
(0.10197 -0.000185691 0)
(0.102092 -0.00020069 0)
(0.10222 -0.000215894 0)
(0.102355 -0.000231285 0)
(0.102496 -0.00024684 0)
(0.102643 -0.000262529 0)
(0.102797 -0.00027831 0)
(0.102956 -0.000294132 0)
(0.10312 -0.000309934 0)
(0.103289 -0.000325644 0)
(0.103463 -0.000341181 0)
(0.103641 -0.000356451 0)
(0.103823 -0.000371351 0)
(0.104009 -0.000385766 0)
(0.104198 -0.000399568 0)
(0.104389 -0.000412612 0)
(0.104581 -0.00042474 0)
(0.104776 -0.000435775 0)
(0.10497 -0.000445519 0)
(0.105165 -0.00045375 0)
(0.105359 -0.000460221 0)
(0.105551 -0.000464654 0)
(0.105741 -0.000466736 0)
(0.105927 -0.000466114 0)
(0.106109 -0.000462388 0)
(0.106285 -0.000455104 0)
(0.106455 -0.000443743 0)
(0.106616 -0.000427712 0)
(0.106768 -0.000406328 0)
(0.106908 -0.0003788 0)
(0.107036 -0.000344211 0)
(0.107149 -0.000301486 0)
(0.107246 -0.000249366 0)
(0.107323 -0.000186358 0)
(0.10738 -0.000110683 0)
(0.107412 -2.0208e-05 0)
(0.107416 8.76524e-05 0)
(0.10739 0.000216031 0)
(0.10733 0.00036876 0)
(0.107231 0.00055057 0)
(0.107088 0.000767345 0)
(0.106898 0.00102646 0)
(0.106654 0.00133721 0)
(0.10635 0.00171143 0)
(0.105981 0.0021642 0)
(0.105543 0.00271486 0)
(0.105031 0.00338813 0)
(0.104446 0.00421542 0)
(0.103793 0.00523599 0)
(0.103089 0.00649717 0)
(0.102365 0.0080521 0)
(0.101681 0.00995132 0)
(0.101129 0.0122217 0)
(0.100843 0.014823 0)
(0.100982 0.0175685 0)
(0.101652 0.0200165 0)
(0.100008 -3.62297e-05 0)
(0.100049 -6.80395e-05 0)
(0.100115 -9.37104e-05 0)
(0.100197 -0.000113391 0)
(0.10029 -0.000127181 0)
(0.10039 -0.000135024 0)
(0.100492 -0.000137009 0)
(0.100593 -0.000133675 0)
(0.100687 -0.000126097 0)
(0.100774 -0.00011582 0)
(0.100852 -0.000104646 0)
(0.100921 -9.43492e-05 0)
(0.100983 -8.64178e-05 0)
(0.101039 -8.18789e-05 0)
(0.101092 -8.12402e-05 0)
(0.101145 -8.45373e-05 0)
(0.101199 -9.14482e-05 0)
(0.101257 -0.000101437 0)
(0.101319 -0.000113888 0)
(0.101388 -0.000128205 0)
(0.101463 -0.000143876 0)
(0.101546 -0.000160506 0)
(0.101635 -0.000177809 0)
(0.101732 -0.000195596 0)
(0.101836 -0.000213754 0)
(0.101947 -0.000232216 0)
(0.102065 -0.000250945 0)
(0.102189 -0.000269917 0)
(0.102319 -0.000289107 0)
(0.102456 -0.000308486 0)
(0.102598 -0.000328012 0)
(0.102746 -0.000347633 0)
(0.1029 -0.000367284 0)
(0.103058 -0.000386887 0)
(0.103221 -0.00040635 0)
(0.103389 -0.000425571 0)
(0.10356 -0.000444432 0)
(0.103735 -0.000462801 0)
(0.103913 -0.000480534 0)
(0.104094 -0.000497469 0)
(0.104277 -0.000513425 0)
(0.104461 -0.000528203 0)
(0.104646 -0.000541579 0)
(0.104832 -0.000553307 0)
(0.105017 -0.000563111 0)
(0.105201 -0.00057068 0)
(0.105383 -0.000575669 0)
(0.105562 -0.000577691 0)
(0.105737 -0.000576306 0)
(0.105908 -0.000571023 0)
(0.106073 -0.000561281 0)
(0.106231 -0.000546445 0)
(0.106381 -0.000525788 0)
(0.106521 -0.00049848 0)
(0.106651 -0.000463561 0)
(0.106768 -0.000419926 0)
(0.106871 -0.000366288 0)
(0.106958 -0.000301142 0)
(0.107028 -0.000222725 0)
(0.107077 -0.000128949 0)
(0.107104 -1.73322e-05 0)
(0.107106 0.000115089 0)
(0.107081 0.000271862 0)
(0.107026 0.000457264 0)
(0.106937 0.000676487 0)
(0.106812 0.00093586 0)
(0.106648 0.00124313 0)
(0.106442 0.00160779 0)
(0.106193 0.00204153 0)
(0.105898 0.00255869 0)
(0.10556 0.00317678 0)
(0.105181 0.00391696 0)
(0.104771 0.0048043 0)
(0.104345 0.00586743 0)
(0.103929 0.00713694 0)
(0.103564 0.00864121 0)
(0.103309 0.0103976 0)
(0.10324 0.0123959 0)
(0.103448 0.0145716 0)
(0.104015 0.0167697 0)
(0.104956 0.0187171 0)
(0.100008 -4.38435e-05 0)
(0.100048 -8.28525e-05 0)
(0.100113 -0.000114275 0)
(0.100194 -0.000138441 0)
(0.100286 -0.000155431 0)
(0.100386 -0.000165172 0)
(0.100488 -0.000167773 0)
(0.100588 -0.000163872 0)
(0.100684 -0.000154761 0)
(0.100771 -0.000142301 0)
(0.10085 -0.000128668 0)
(0.10092 -0.000116018 0)
(0.100983 -0.000106167 0)
(0.10104 -0.000100381 0)
(0.101093 -9.92978e-05 0)
(0.101145 -0.000102984 0)
(0.101199 -0.000111068 0)
(0.101255 -0.000122912 0)
(0.101316 -0.000137776 0)
(0.101383 -0.000154937 0)
(0.101456 -0.000173772 0)
(0.101535 -0.000193792 0)
(0.101622 -0.000214642 0)
(0.101715 -0.000236086 0)
(0.101815 -0.000257975 0)
(0.101922 -0.000280225 0)
(0.102035 -0.000302783 0)
(0.102155 -0.000325615 0)
(0.10228 -0.000348687 0)
(0.102412 -0.000371962 0)
(0.102549 -0.000395386 0)
(0.102691 -0.000418894 0)
(0.102838 -0.000442406 0)
(0.10299 -0.000465826 0)
(0.103146 -0.000489042 0)
(0.103306 -0.000511927 0)
(0.103469 -0.000534338 0)
(0.103636 -0.000556115 0)
(0.103806 -0.000577082 0)
(0.103977 -0.000597041 0)
(0.104151 -0.000615774 0)
(0.104325 -0.000633039 0)
(0.1045 -0.000648566 0)
(0.104675 -0.000662057 0)
(0.104849 -0.00067318 0)
(0.105021 -0.000681564 0)
(0.105192 -0.000686794 0)
(0.105359 -0.000688408 0)
(0.105522 -0.000685887 0)
(0.105681 -0.000678644 0)
(0.105833 -0.000666019 0)
(0.105979 -0.000647267 0)
(0.106116 -0.000621537 0)
(0.106244 -0.000587862 0)
(0.106362 -0.000545136 0)
(0.106468 -0.000492086 0)
(0.10656 -0.000427244 0)
(0.106637 -0.00034891 0)
(0.106698 -0.000255105 0)
(0.106741 -0.000143515 0)
(0.106764 -1.14204e-05 0)
(0.106765 0.000144372 0)
(0.106742 0.000327625 0)
(0.106695 0.000542799 0)
(0.10662 0.000795193 0)
(0.106516 0.0010911 0)
(0.106384 0.00143802 0)
(0.106222 0.00184483 0)
(0.106031 0.00232204 0)
(0.105815 0.00288194 0)
(0.105578 0.00353873 0)
(0.105328 0.0043084 0)
(0.105079 0.00520835 0)
(0.104851 0.00625622 0)
(0.104672 0.00746771 0)
(0.104578 0.00885258 0)
(0.104617 0.010408 0)
(0.104843 0.0121085 0)
(0.105309 0.0138927 0)
(0.106051 0.0156511 0)
(0.107054 0.0172239 0)
(0.100007 -5.18128e-05 0)
(0.100047 -9.84571e-05 0)
(0.100111 -0.000136007 0)
(0.100191 -0.000164984 0)
(0.100283 -0.000185445 0)
(0.100382 -0.000197294 0)
(0.100483 -0.000200659 0)
(0.100584 -0.000196276 0)
(0.100679 -0.000185647 0)
(0.100768 -0.000170949 0)
(0.100848 -0.000154743 0)
(0.100919 -0.000139578 0)
(0.100983 -0.000127618 0)
(0.10104 -0.000120383 0)
(0.101094 -0.000118665 0)
(0.101147 -0.000122573 0)
(0.101199 -0.000131699 0)
(0.101255 -0.000145309 0)
(0.101314 -0.000162538 0)
(0.101378 -0.000182533 0)
(0.101449 -0.000204553 0)
(0.101525 -0.00022801 0)
(0.101608 -0.000252472 0)
(0.101698 -0.000277646 0)
(0.101794 -0.000303346 0)
(0.101896 -0.00032946 0)
(0.102004 -0.000355918 0)
(0.102119 -0.000382672 0)
(0.102239 -0.000409679 0)
(0.102365 -0.000436885 0)
(0.102495 -0.000464229 0)
(0.102631 -0.00049163 0)
(0.102771 -0.00051899 0)
(0.102915 -0.000546193 0)
(0.103064 -0.000573108 0)
(0.103215 -0.000599581 0)
(0.10337 -0.000625444 0)
(0.103528 -0.000650506 0)
(0.103688 -0.000674556 0)
(0.103849 -0.000697362 0)
(0.104012 -0.000718667 0)
(0.104176 -0.000738183 0)
(0.10434 -0.000755596 0)
(0.104503 -0.000770556 0)
(0.104665 -0.000782674 0)
(0.104825 -0.000791519 0)
(0.104982 -0.000796611 0)
(0.105137 -0.000797413 0)
(0.105287 -0.000793329 0)
(0.105432 -0.000783686 0)
(0.105571 -0.000767734 0)
(0.105703 -0.000744625 0)
(0.105827 -0.000713402 0)
(0.105942 -0.000672982 0)
(0.106047 -0.000622134 0)
(0.106141 -0.000559457 0)
(0.106223 -0.000483348 0)
(0.106291 -0.000391967 0)
(0.106344 -0.000283199 0)
(0.106381 -0.000154605 0)
(0.106401 -3.3643e-06 0)
(0.106402 0.00017378 0)
(0.106385 0.00038059 0)
(0.106347 0.000621428 0)
(0.106288 0.000901344 0)
(0.10621 0.00122617 0)
(0.106112 0.00160259 0)
(0.105996 0.00203826 0)
(0.105865 0.00254176 0)
(0.105725 0.00312262 0)
(0.105583 0.00379108 0)
(0.10545 0.00455772 0)
(0.10534 0.00543268 0)
(0.105272 0.00642447 0)
(0.10527 0.00753795 0)
(0.105365 0.00877145 0)
(0.105589 0.0101127 0)
(0.105975 0.0115339 0)
(0.106553 0.0129864 0)
(0.107334 0.0143983 0)
(0.108298 0.0156788 0)
(0.100007 -6.01515e-05 0)
(0.100046 -0.000114866 0)
(0.100109 -0.000158932 0)
(0.100188 -0.00019306 0)
(0.100278 -0.000217287 0)
(0.100376 -0.000231489 0)
(0.100478 -0.000235803 0)
(0.100578 -0.000231059 0)
(0.100674 -0.000218963 0)
(0.100764 -0.000202005 0)
(0.100845 -0.000183131 0)
(0.100918 -0.000165293 0)
(0.100983 -0.000151017 0)
(0.101042 -0.000142105 0)
(0.101096 -0.000139518 0)
(0.101149 -0.000143433 0)
(0.101201 -0.000153416 0)
(0.101255 -0.000168647 0)
(0.101313 -0.000188141 0)
(0.101375 -0.000210913 0)
(0.101442 -0.000236099 0)
(0.101515 -0.000263002 0)
(0.101595 -0.000291106 0)
(0.10168 -0.000320054 0)
(0.101772 -0.000349613 0)
(0.101869 -0.000379638 0)
(0.101972 -0.000410036 0)
(0.102081 -0.000440742 0)
(0.102195 -0.000471697 0)
(0.102314 -0.000502835 0)
(0.102438 -0.000534078 0)
(0.102567 -0.000565331 0)
(0.102699 -0.000596476 0)
(0.102836 -0.000627379 0)
(0.102975 -0.000657883 0)
(0.103118 -0.00068781 0)
(0.103264 -0.000716962 0)
(0.103412 -0.000745119 0)
(0.103561 -0.000772036 0)
(0.103712 -0.000797443 0)
(0.103863 -0.000821043 0)
(0.104015 -0.000842506 0)
(0.104167 -0.00086147 0)
(0.104318 -0.000877536 0)
(0.104467 -0.000890259 0)
(0.104614 -0.000899152 0)
(0.104758 -0.00090367 0)
(0.104898 -0.000903213 0)
(0.105034 -0.000897109 0)
(0.105165 -0.000884614 0)
(0.10529 -0.000864895 0)
(0.105408 -0.000837021 0)
(0.105519 -0.00079995 0)
(0.105621 -0.00075251 0)
(0.105713 -0.000693382 0)
(0.105796 -0.000621078 0)
(0.105867 -0.000533916 0)
(0.105926 -0.000429991 0)
(0.105972 -0.000307144 0)
(0.106004 -0.000162922 0)
(0.106023 5.45522e-06 0)
(0.106026 0.00020113 0)
(0.106015 0.000427654 0)
(0.105989 0.000689032 0)
(0.10595 0.000989763 0)
(0.105897 0.00133486 0)
(0.105834 0.00172985 0)
(0.105764 0.00218073 0)
(0.10569 0.00269388 0)
(0.105621 0.00327586 0)
(0.105562 0.00393308 0)
(0.105527 0.00467133 0)
(0.105526 0.00549504 0)
(0.105578 0.00640621 0)
(0.105701 0.00740308 0)
(0.105915 0.00847838 0)
(0.106242 0.00961729 0)
(0.106701 0.0107955 0)
(0.107306 0.0119778 0)
(0.108057 0.0131188 0)
(0.108937 0.0141674 0)
(0.100006 -6.88707e-05 0)
(0.100045 -0.00013209 0)
(0.100106 -0.000183071 0)
(0.100184 -0.000222704 0)
(0.100274 -0.000251012 0)
(0.100371 -0.000267839 0)
(0.100472 -0.000273327 0)
(0.100572 -0.000268387 0)
(0.100669 -0.000254917 0)
(0.100759 -0.00023571 0)
(0.100842 -0.000214096 0)
(0.100916 -0.000193434 0)
(0.100983 -0.000176628 0)
(0.101043 -0.000165781 0)
(0.101098 -0.000162051 0)
(0.101151 -0.000165704 0)
(0.101203 -0.000176303 0)
(0.101256 -0.000192955 0)
(0.101312 -0.000214558 0)
(0.101371 -0.000239998 0)
(0.101436 -0.000268281 0)
(0.101506 -0.000298597 0)
(0.101581 -0.000330335 0)
(0.101662 -0.000363063 0)
(0.101748 -0.000396494 0)
(0.101841 -0.000430442 0)
(0.101938 -0.000464784 0)
(0.102041 -0.000499434 0)
(0.102149 -0.000534312 0)
(0.102261 -0.000569338 0)
(0.102378 -0.000604415 0)
(0.102499 -0.00063943 0)
(0.102623 -0.000674247 0)
(0.102751 -0.000708708 0)
(0.102881 -0.000742633 0)
(0.103015 -0.000775818 0)
(0.10315 -0.000808035 0)
(0.103287 -0.000839032 0)
(0.103426 -0.000868531 0)
(0.103565 -0.000896224 0)
(0.103705 -0.000921775 0)
(0.103845 -0.000944813 0)
(0.103983 -0.000964929 0)
(0.104121 -0.000981676 0)
(0.104256 -0.00099456 0)
(0.104389 -0.00100304 0)
(0.104519 -0.00100651 0)
(0.104645 -0.00100432 0)
(0.104767 -0.000995735 0)
(0.104884 -0.000979945 0)
(0.104994 -0.000956058 0)
(0.105098 -0.00092308 0)
(0.105195 -0.00087991 0)
(0.105284 -0.000825322 0)
(0.105365 -0.00075795 0)
(0.105436 -0.000676275 0)
(0.105497 -0.000578599 0)
(0.105548 -0.00046303 0)
(0.105588 -0.000327459 0)
(0.105618 -0.000169537 0)
(0.105636 1.33368e-05 0)
(0.105643 0.000224033 0)
(0.10564 0.000465707 0)
(0.105627 0.000741806 0)
(0.105607 0.00105606 0)
(0.10558 0.00141246 0)
(0.105551 0.00181517 0)
(0.105523 0.00226845 0)
(0.1055 0.00277647 0)
(0.105491 0.0033431 0)
(0.105501 0.00397155 0)
(0.105542 0.00466393 0)
(0.105623 0.00542071 0)
(0.105757 0.00623997 0)
(0.105958 0.00711668 0)
(0.10624 0.00804178 0)
(0.106614 0.00900142 0)
(0.107091 0.00997648 0)
(0.107675 0.0109427 0)
(0.108364 0.011872 0)
(0.109146 0.0127354 0)
(0.100006 -7.79777e-05 0)
(0.100044 -0.000150131 0)
(0.100104 -0.000208433 0)
(0.10018 -0.000253936 0)
(0.100268 -0.000286659 0)
(0.100364 -0.00030641 0)
(0.100464 -0.00031333 0)
(0.100565 -0.000308399 0)
(0.100662 -0.00029369 0)
(0.100753 -0.000272284 0)
(0.100837 -0.000247884 0)
(0.100913 -0.000224259 0)
(0.100981 -0.000204704 0)
(0.101042 -0.000191643 0)
(0.101099 -0.000186459 0)
(0.101152 -0.000189535 0)
(0.101203 -0.000200453 0)
(0.101255 -0.000218265 0)
(0.10131 -0.000241763 0)
(0.101367 -0.000269705 0)
(0.101428 -0.000300965 0)
(0.101494 -0.00033461 0)
(0.101565 -0.000369926 0)
(0.101642 -0.000406397 0)
(0.101723 -0.000443671 0)
(0.10181 -0.000481512 0)
(0.101902 -0.000519763 0)
(0.101998 -0.000558304 0)
(0.102099 -0.000597037 0)
(0.102204 -0.000635859 0)
(0.102313 -0.000674654 0)
(0.102426 -0.000713289 0)
(0.102541 -0.000751607 0)
(0.10266 -0.000789428 0)
(0.102781 -0.000826545 0)
(0.102904 -0.000862728 0)
(0.103029 -0.00089772 0)
(0.103155 -0.000931238 0)
(0.103282 -0.000962967 0)
(0.10341 -0.000992567 0)
(0.103537 -0.00101966 0)
(0.103664 -0.00104384 0)
(0.103789 -0.00106465 0)
(0.103913 -0.00108161 0)
(0.104034 -0.00109416 0)
(0.104153 -0.00110174 0)
(0.104269 -0.00110368 0)
(0.10438 -0.00109928 0)
(0.104487 -0.00108776 0)
(0.104589 -0.00106827 0)
(0.104686 -0.00103989 0)
(0.104776 -0.00100157 0)
(0.10486 -0.000952189 0)
(0.104936 -0.000890509 0)
(0.105005 -0.000815164 0)
(0.105065 -0.000724658 0)
(0.105118 -0.000617345 0)
(0.105162 -0.000491425 0)
(0.105197 -0.000344933 0)
(0.105224 -0.000175729 0)
(0.105243 1.84945e-05 0)
(0.105255 0.000240207 0)
(0.105261 0.000492037 0)
(0.105261 0.000776748 0)
(0.10526 0.0010972 0)
(0.105258 0.00145626 0)
(0.105259 0.00185677 0)
(0.105267 0.00230134 0)
(0.105287 0.00279225 0)
(0.105326 0.00333117 0)
(0.105389 0.00391893 0)
(0.105484 0.00455517 0)
(0.10562 0.00523802 0)
(0.105806 0.00596364 0)
(0.106051 0.00672591 0)
(0.106362 0.0075161 0)
(0.106746 0.0083227 0)
(0.107208 0.00913155 0)
(0.107749 0.00992632 0)
(0.108364 0.0106896 0)
(0.109045 0.0114049 0)
(0.100005 -8.74743e-05 0)
(0.100042 -0.000168986 0)
(0.100101 -0.000235016 0)
(0.100176 -0.000286758 0)
(0.100262 -0.000324242 0)
(0.100357 -0.000347237 0)
(0.100456 -0.000355876 0)
(0.100556 -0.000351193 0)
(0.100653 -0.000335418 0)
(0.100745 -0.000311899 0)
(0.10083 -0.000284696 0)
(0.100907 -0.000257986 0)
(0.100977 -0.000235464 0)
(0.10104 -0.000219897 0)
(0.101097 -0.000212919 0)
(0.10115 -0.00021506 0)
(0.101202 -0.000225949 0)
(0.101253 -0.000244603 0)
(0.101305 -0.000269722 0)
(0.10136 -0.00029994 0)
(0.101418 -0.000333997 0)
(0.10148 -0.000370833 0)
(0.101547 -0.000409619 0)
(0.101619 -0.000449745 0)
(0.101695 -0.000490783 0)
(0.101776 -0.00053244 0)
(0.101861 -0.00057451 0)
(0.101951 -0.000616843 0)
(0.102044 -0.000659309 0)
(0.102142 -0.000701782 0)
(0.102243 -0.000744124 0)
(0.102347 -0.000786179 0)
(0.102453 -0.000827768 0)
(0.102562 -0.000868687 0)
(0.102673 -0.000908704 0)
(0.102786 -0.000947562 0)
(0.1029 -0.000984975 0)
(0.103014 -0.00102063 0)
(0.103129 -0.00105418 0)
(0.103244 -0.00108524 0)
(0.103358 -0.00111341 0)
(0.103472 -0.00113825 0)
(0.103583 -0.00115925 0)
(0.103693 -0.0011759 0)
(0.103801 -0.00118762 0)
(0.103905 -0.00119378 0)
(0.104006 -0.0011937 0)
(0.104103 -0.00118664 0)
(0.104195 -0.00117179 0)
(0.104283 -0.00114828 0)
(0.104365 -0.00111516 0)
(0.104442 -0.0010714 0)
(0.104513 -0.00101587 0)
(0.104577 -0.000947362 0)
(0.104635 -0.000864563 0)
(0.104686 -0.000766055 0)
(0.10473 -0.000650309 0)
(0.104768 -0.000515689 0)
(0.1048 -0.00036045 0)
(0.104826 -0.000182747 0)
(0.104846 1.93495e-05 0)
(0.104863 0.000247829 0)
(0.104877 0.000504726 0)
(0.104891 0.000792071 0)
(0.104906 0.00111184 0)
(0.104925 0.00146587 0)
(0.104952 0.00185578 0)
(0.104989 0.00228283 0)
(0.105043 0.00274779 0)
(0.105117 0.00325076 0)
(0.105217 0.00379102 0)
(0.105348 0.00436679 0)
(0.105518 0.00497504 0)
(0.10573 0.00561137 0)
(0.105992 0.00626982 0)
(0.106307 0.0069429 0)
(0.106678 0.00762164 0)
(0.107108 0.00829589 0)
(0.107594 0.00895478 0)
(0.108134 0.00958748 0)
(0.108721 0.0101844 0)
(0.100004 -9.73559e-05 0)
(0.100041 -0.000188638 0)
(0.100098 -0.000262796 0)
(0.100171 -0.000321146 0)
(0.100256 -0.000363739 0)
(0.100349 -0.000390309 0)
(0.100447 -0.000400972 0)
(0.100545 -0.000396803 0)
(0.100642 -0.000380164 0)
(0.100734 -0.000354648 0)
(0.10082 -0.000324654 0)
(0.100898 -0.000294758 0)
(0.100969 -0.00026906 0)
(0.101033 -0.000250688 0)
(0.101091 -0.000241557 0)
(0.101145 -0.000242373 0)
(0.101196 -0.000252843 0)
(0.101245 -0.000271969 0)
(0.101296 -0.000298377 0)
(0.101348 -0.000330585 0)
(0.101403 -0.000367199 0)
(0.101461 -0.000407025 0)
(0.101524 -0.000449112 0)
(0.10159 -0.000492745 0)
(0.101661 -0.00053741 0)
(0.101736 -0.000582745 0)
(0.101814 -0.000628491 0)
(0.101897 -0.000674454 0)
(0.101983 -0.000720473 0)
(0.102072 -0.000766391 0)
(0.102165 -0.000812046 0)
(0.102259 -0.000857259 0)
(0.102357 -0.000901825 0)
(0.102455 -0.000945516 0)
(0.102556 -0.000988076 0)
(0.102657 -0.00102922 0)
(0.10276 -0.00106863 0)
(0.102862 -0.00110598 0)
(0.102965 -0.00114087 0)
(0.103067 -0.0011729 0)
(0.103168 -0.00120164 0)
(0.103267 -0.0012266 0)
(0.103365 -0.00124727 0)
(0.103461 -0.00126308 0)
(0.103554 -0.00127344 0)
(0.103644 -0.00127768 0)
(0.10373 -0.00127512 0)
(0.103813 -0.00126499 0)
(0.103891 -0.00124648 0)
(0.103964 -0.00121872 0)
(0.104033 -0.00118076 0)
(0.104097 -0.0011316 0)
(0.104155 -0.00107017 0)
(0.104208 -0.000995317 0)
(0.104256 -0.000905829 0)
(0.104298 -0.000800416 0)
(0.104336 -0.000677721 0)
(0.104368 -0.000536331 0)
(0.104397 -0.000374777 0)
(0.104422 -0.000191562 0)
(0.104444 1.48183e-05 0)
(0.104466 0.000245846 0)
(0.104488 0.000502953 0)
(0.104512 0.000787469 0)
(0.104541 0.00110057 0)
(0.104578 0.00144319 0)
(0.104624 0.00181598 0)
(0.104684 0.00221915 0)
(0.10476 0.00265244 0)
(0.104858 0.00311495 0)
(0.104981 0.00360506 0)
(0.105132 0.00412035 0)
(0.105317 0.0046575 0)
(0.105538 0.00521225 0)
(0.105799 0.0057794 0)
(0.106101 0.00635294 0)
(0.106447 0.00692614 0)
(0.106836 0.00749183 0)
(0.107265 0.00804278 0)
(0.107733 0.00857217 0)
(0.108234 0.00907432 0)
(0.100003 -0.00010761 0)
(0.100039 -0.000209056 0)
(0.100095 -0.000291728 0)
(0.100166 -0.000357045 0)
(0.100249 -0.000405088 0)
(0.10034 -0.000435561 0)
(0.100435 -0.000448557 0)
(0.100533 -0.000445177 0)
(0.100629 -0.000427895 0)
(0.10072 -0.000400519 0)
(0.100806 -0.00036777 0)
(0.100885 -0.000334608 0)
(0.100957 -0.00030554 0)
(0.101021 -0.000284072 0)
(0.10108 -0.000272422 0)
(0.101133 -0.000271505 0)
(0.101183 -0.00028113 0)
(0.101232 -0.000300316 0)
(0.101281 -0.00032763 0)
(0.10133 -0.000361482 0)
(0.101382 -0.000400348 0)
(0.101436 -0.000442897 0)
(0.101494 -0.000488048 0)
(0.101555 -0.000534972 0)
(0.101619 -0.000583058 0)
(0.101688 -0.000631865 0)
(0.10176 -0.000681074 0)
(0.101835 -0.00073044 0)
(0.101913 -0.000779762 0)
(0.101994 -0.000828852 0)
(0.102077 -0.000877519 0)
(0.102162 -0.000925556 0)
(0.102249 -0.000972736 0)
(0.102338 -0.00101881 0)
(0.102427 -0.00106348 0)
(0.102517 -0.00110646 0)
(0.102607 -0.0011474 0)
(0.102698 -0.00118592 0)
(0.102787 -0.00122163 0)
(0.102876 -0.00125409 0)
(0.102964 -0.00128284 0)
(0.103049 -0.00130737 0)
(0.103133 -0.00132714 0)
(0.103214 -0.00134158 0)
(0.103293 -0.00135006 0)
(0.103368 -0.00135193 0)
(0.10344 -0.00134647 0)
(0.103508 -0.00133293 0)
(0.103573 -0.00131052 0)
(0.103633 -0.00127838 0)
(0.103689 -0.00123562 0)
(0.10374 -0.00118129 0)
(0.103787 -0.00111439 0)
(0.103829 -0.00103388 0)
(0.103867 -0.000938685 0)
(0.103902 -0.000827683 0)
(0.103933 -0.000699731 0)
(0.10396 -0.000553671 0)
(0.103986 -0.000388348 0)
(0.10401 -0.000202632 0)
(0.104035 4.5541e-06 0)
(0.10406 0.000234199 0)
(0.104089 0.000487179 0)
(0.104121 0.000764209 0)
(0.104161 0.0010658 0)
(0.104209 0.00139218 0)
(0.104269 0.00174327 0)
(0.104344 0.00211859 0)
(0.104435 0.00251722 0)
(0.104546 0.00293774 0)
(0.104679 0.00337815 0)
(0.104838 0.00383587 0)
(0.105025 0.00430776 0)
(0.105242 0.00479007 0)
(0.10549 0.00527855 0)
(0.10577 0.00576854 0)
(0.106083 0.00625509 0)
(0.106427 0.0067332 0)
(0.106802 0.00719801 0)
(0.107204 0.00764518 0)
(0.107629 0.0080713 0)
(0.100003 -0.000118215 0)
(0.100038 -0.000230193 0)
(0.100092 -0.00032174 0)
(0.10016 -0.000394362 0)
(0.100241 -0.000448177 0)
(0.100329 -0.000482864 0)
(0.100422 -0.000498488 0)
(0.100518 -0.000496167 0)
(0.100612 -0.000478463 0)
(0.100703 -0.000449377 0)
(0.100788 -0.000413923 0)
(0.100867 -0.000377434 0)
(0.100939 -0.000344823 0)
(0.101003 -0.000319982 0)
(0.101061 -0.000305453 0)
(0.101114 -0.000302386 0)