/*--------------------------------*- C++ -*----------------------------------*\
| =========                 |                                                 |
| \\      /  F ield         | OpenFOAM: The Open Source CFD Toolbox           |
|  \\    /   O peration     | Version:  2106                                  |
|   \\  /    A nd           | Website:  www.openfoam.com                      |
|    \\/     M anipulation  |                                                 |
\*---------------------------------------------------------------------------*/
FoamFile
{
    version     2.0;
    format      ascii;
    arch        "LSB;label=32;scalar=64";
    class       surfaceScalarField;
    location    "7";
    object      phi;
}
// * * * * * * * * * * * * * * * * * * * * * * * * * * * * * * * * * * * * * //

dimensions      [1 0 -1 0 0 0 0];

oriented        oriented;

internalField   nonuniform List<scalar> 
23692
(
9.31829e-05
-1.03449e-07
9.33701e-05
-1.87178e-07
9.36318e-05
-2.61737e-07
9.39593e-05
-3.27381e-07
9.43455e-05
-3.86179e-07
9.47849e-05
-4.39382e-07
9.52728e-05
-4.87822e-07
9.5805e-05
-5.32166e-07
9.6378e-05
-5.72928e-07
9.69886e-05
-6.1052e-07
9.7634e-05
-6.45272e-07
9.83115e-05
-6.77468e-07
9.9019e-05
-7.07334e-07
9.97541e-05
-7.35064e-07
0.000100515
-7.60823e-07
0.0001013
-7.84752e-07
0.000102107
-8.06968e-07
0.000102935
-8.27577e-07
0.000103782
-8.46665e-07
0.000104646
-8.64311e-07
0.000105527
-8.80581e-07
0.000106422
-8.9553e-07
0.000107332
-9.09212e-07
0.000108253
-9.21669e-07
0.000109187
-9.3294e-07
0.00011013
-9.43056e-07
0.000111082
-9.52051e-07
0.000112042
-9.59945e-07
0.000113009
-9.6676e-07
0.000113982
-9.72517e-07
0.000114959
-9.77229e-07
0.00011594
-9.80911e-07
0.000116924
-9.8357e-07
0.000117909
-9.85215e-07
0.000118895
-9.8585e-07
0.000119881
-9.85478e-07
0.000120865
-9.84096e-07
0.000121847
-9.81702e-07
0.000122825
-9.78289e-07
0.000123799
-9.73845e-07
0.000124767
-9.68358e-07
0.000125729
-9.61808e-07
0.000126684
-9.54174e-07
0.000127629
-9.45428e-07
0.000128565
-9.35535e-07
0.000129489
-9.24456e-07
0.000130402
-9.12142e-07
0.0001313
-8.98534e-07
0.000132184
-8.83568e-07
0.000133051
-8.67162e-07
0.0001339
-8.49221e-07
0.00013473
-8.29637e-07
0.000135538
-8.08275e-07
0.000136323
-7.84983e-07
0.000137083
-7.59575e-07
0.000137815
-7.31832e-07
0.000138516
-7.0149e-07
0.000139185
-6.68232e-07
0.000139816
-6.31677e-07
0.000140408
-5.91358e-07
0.000140955
-5.46703e-07
0.000141452
-4.97004e-07
0.000141893
-4.41379e-07
0.000142272
-3.78714e-07
0.000142579
-3.07589e-07
0.000142805
-2.26173e-07
0.000142938
-1.32068e-07
0.00014296
-2.21011e-08
0.000142852
1.0809e-07
0.000142587
2.64559e-07
0.000142131
4.5594e-07
0.000141436
6.94784e-07
0.000140436
9.9986e-07
0.000139036
1.40007e-06
0.000137095
1.94128e-06
0.000134397
2.69833e-06
0.0001306
3.79642e-06
0.000125149
5.451e-06
0.000117089
8.06066e-06
0.000104642
1.2447e-05
2.09803e-05
8.36613e-05
9.97069e-05
-2.11392e-07
9.99061e-05
-3.86333e-07
0.000100185
-5.40899e-07
0.000100535
-6.76753e-07
0.000100947
-7.9848e-07
0.000101416
-9.08609e-07
0.000101937
-1.00887e-06
0.000102506
-1.10064e-06
0.000103118
-1.185e-06
0.00010377
-1.26278e-06
0.00010446
-1.3347e-06
0.000105184
-1.40131e-06
0.00010594
-1.4631e-06
0.000106725
-1.52046e-06
0.000107538
-1.57375e-06
0.000108377
-1.62324e-06
0.000109239
-1.66919e-06
0.000110124
-1.71181e-06
0.000111028
-1.75128e-06
0.000111952
-1.78776e-06
0.000112893
-1.8214e-06
0.00011385
-1.8523e-06
0.000114821
-1.88058e-06
0.000115806
-1.90631e-06
0.000116803
-1.9296e-06
0.000117811
-1.95049e-06
0.000118828
-1.96906e-06
0.000119853
-1.98535e-06
0.000120886
-1.99941e-06
0.000121925
-2.01127e-06
0.000122969
-2.02098e-06
0.000124017
-2.02855e-06
0.000125067
-2.034e-06
0.000126119
-2.03735e-06
0.000127172
-2.03861e-06
0.000128225
-2.03779e-06
0.000129276
-2.03488e-06
0.000130324
-2.02987e-06
0.000131369
-2.02275e-06
0.000132408
-2.0135e-06
0.000133442
-2.0021e-06
0.000134469
-1.98849e-06
0.000135488
-1.97265e-06
0.000136497
-1.9545e-06
0.000137495
-1.93399e-06
0.000138482
-1.91102e-06
0.000139455
-1.8855e-06
0.000140414
-1.85731e-06
0.000141357
-1.82632e-06
0.000142282
-1.79236e-06
0.000143188
-1.75524e-06
0.000144074
-1.71473e-06
0.000144936
-1.67057e-06
0.000145773
-1.62243e-06
0.000146584
-1.56995e-06
0.000147365
-1.51267e-06
0.000148113
-1.45007e-06
0.000148827
-1.3815e-06
0.000149501
-1.30619e-06
0.000150133
-1.22319e-06
0.000150718
-1.13137e-06
0.00015125
-1.0293e-06
0.000151724
-9.1522e-07
0.000152132
-7.86913e-07
0.000152466
-6.41575e-07
0.000152716
-4.756e-07
0.000152868
-2.84309e-07
0.000152907
-6.15404e-08
0.000152815
2.00975e-07
0.000152564
5.14614e-07
0.000152125
8.95281e-07
0.000151454
1.36557e-06
0.000150496
1.95829e-06
0.000149174
2.72204e-06
0.000147385
3.73022e-06
0.000144988
5.09507e-06
0.000141796
6.98833e-06
0.000137579
9.66882e-06
0.000132119
1.35198e-05
0.000125551
1.90157e-05
2.59915e-05
0.000120539
0.000106687
-3.23174e-07
0.000106898
-5.97194e-07
0.000107194
-8.37276e-07
0.000107566
-1.04842e-06
0.000108005
-1.23753e-06
0.000108505
-1.40858e-06
0.00010906
-1.56427e-06
0.000109667
-1.70675e-06
0.000110319
-1.83771e-06
0.000111015
-1.95845e-06
0.000111751
-2.07006e-06
0.000112523
-2.17344e-06
0.000113329
-2.26931e-06
0.000114167
-2.35831e-06
0.000115035
-2.44097e-06
0.000115929
-2.51774e-06
0.000116849
-2.589e-06
0.000117793
-2.65508e-06
0.000118758
-2.71627e-06
0.000119743
-2.77282e-06
0.000120747
-2.82494e-06
0.000121767
-2.87281e-06
0.000122803
-2.91661e-06
0.000123854
-2.95646e-06
0.000124917
-2.99249e-06
0.000125991
-3.02481e-06
0.000127076
-3.05352e-06
0.000128169
-3.07869e-06
0.00012927
-3.10039e-06
0.000130378
-3.11868e-06
0.000131491
-3.13361e-06
0.000132608
-3.14523e-06
0.000133727
-3.15356e-06
0.000134849
-3.15863e-06
0.000135971
-3.16045e-06
0.000137092
-3.15903e-06
0.000138212
-3.15437e-06
0.000139328
-3.14645e-06
0.000140441
-3.13526e-06
0.000141549
-3.12076e-06
0.000142649
-3.10292e-06
0.000143743
-3.08166e-06
0.000144827
-3.05693e-06
0.000145901
-3.02864e-06
0.000146964
-2.99668e-06
0.000148014
-2.96092e-06
0.00014905
-2.92121e-06
0.00015007
-2.87738e-06
0.000151073
-2.82921e-06
0.000152057
-2.77646e-06
0.000153021
-2.71884e-06
0.000153962
-2.65599e-06
0.000154879
-2.58752e-06
0.00015577
-2.51295e-06
0.000156632
-2.43171e-06
0.000157462
-2.34313e-06
0.000158259
-2.2464e-06
0.000159018
-2.14057e-06
0.000159736
-2.02448e-06
0.00016041
-1.89673e-06
0.000161034
-1.75562e-06
0.000161604
-1.59906e-06
0.000162113
-1.42446e-06
0.000162555
-1.22862e-06
0.000162921
-1.00746e-06
0.000163201
-7.55852e-07
0.000163384
-4.67162e-07
0.000163455
-1.32807e-07
0.000163398
2.58471e-07
0.00016319
7.21779e-07
0.000162808
1.27769e-06
0.000162219
1.95445e-06
0.000161386
2.79124e-06
0.000160265
3.84303e-06
0.000158808
5.18704e-06
0.000156972
6.93107e-06
0.00015474
9.22095e-06
0.000152169
1.22397e-05
0.000149514
1.61748e-05
0.000147477
2.10524e-05
2.61457e-05
0.000147323
0.000114155
-4.38506e-07
0.000114377
-8.19207e-07
0.000114691
-1.15067e-06
0.000115085
-1.44251e-06
0.000115551
-1.70378e-06
0.000116082
-1.94e-06
0.000116673
-2.15497e-06
0.000117318
-2.35167e-06
0.000118013
-2.53241e-06
0.000118754
-2.69904e-06
0.000119537
-2.85303e-06
0.000120359
-2.99563e-06
0.000121218
-3.12787e-06
0.00012211
-3.2506e-06
0.000123034
-3.36456e-06
0.000123987
-3.47038e-06
0.000124966
-3.56859e-06
0.000125971
-3.65964e-06
0.000126999
-3.74393e-06
0.000128048
-3.8218e-06
0.000129117
-3.89354e-06
0.000130204
-3.95942e-06
0.000131307
-4.01966e-06
0.000132425
-4.07445e-06
0.000133557
-4.12396e-06
0.0001347
-4.16835e-06
0.000135855
-4.20773e-06
0.000137018
-4.24223e-06
0.00013819
-4.27194e-06
0.000139369
-4.29693e-06
0.000140552
-4.31729e-06
0.00014174
-4.33306e-06
0.000142931
-4.34429e-06
0.000144124
-4.35102e-06
0.000145317
-4.35326e-06
0.000146509
-4.35103e-06
0.000147699
-4.34432e-06
0.000148886
-4.33312e-06
0.000150068
-4.31741e-06
0.000151245
-4.29713e-06
0.000152414
-4.27224e-06
0.000153575
-4.24265e-06
0.000154727
-4.20827e-06
0.000155867
-4.16899e-06
0.000156995
-4.12466e-06
0.00015811
-4.07512e-06
0.000159209
-4.02015e-06
0.000160291
-3.95953e-06
0.000161355
-3.89296e-06
0.000162398
-3.82012e-06
0.00016342
-3.74062e-06
0.000164418
-3.65399e-06
0.000165391
-3.55971e-06
0.000166335
-3.45713e-06
0.000167249
-3.34549e-06
0.00016813
-3.22393e-06
0.000168975
-3.09137e-06
0.000169781
-2.94656e-06
0.000170544
-2.788e-06
0.000171261
-2.61387e-06
0.000171928
-2.42198e-06
0.000172538
-2.20966e-06
0.000173088
-1.97363e-06
0.000173569
-1.70985e-06
0.000173975
-1.41328e-06
0.000174297
-1.07764e-06
0.000174524
-6.94947e-07
0.000174647
-2.55071e-07
0.00017465
2.54901e-07
0.00017452
8.51667e-07
0.000174241
1.55719e-06
0.000173795
2.40028e-06
0.000173167
3.41874e-06
0.000172349
4.6619e-06
0.000171342
6.19319e-06
0.000170182
8.09135e-06
0.000168956
1.04467e-05
0.000167851
1.33445e-05
0.00016721
1.6816e-05
0.000167549
2.07137e-05
2.44466e-05
0.000169248
0.000122146
-5.57246e-07
0.000122379
-1.05191e-06
0.000122709
-1.48081e-06
0.000123125
-1.859e-06
0.000123619
-2.19748e-06
0.000124183
-2.50342e-06
0.00012481
-2.78176e-06
0.000125494
-3.03638e-06
0.000126232
-3.27028e-06
0.000127019
-3.48587e-06
0.000127851
-3.68507e-06
0.000128725
-3.86949e-06
0.000129638
-4.04047e-06
0.000130587
-4.19912e-06
0.000131569
-4.3464e-06
0.000132582
-4.48312e-06
0.000133623
-4.60996e-06
0.000134691
-4.72753e-06
0.000135784
-4.83633e-06
0.000136899
-4.9368e-06
0.000138035
-5.02933e-06
0.00013919
-5.11426e-06
0.000140362
-5.19187e-06
0.00014155
-5.26242e-06
0.000142753
-5.32613e-06
0.000143968
-5.38319e-06
0.000145194
-5.43377e-06
0.00014643
-5.47801e-06
0.000147674
-5.51604e-06
0.000148925
-5.54797e-06
0.000150182
-5.57388e-06
0.000151443
-5.59386e-06
0.000152707
-5.60796e-06
0.000153972
-5.61622e-06
0.000155238
-5.61867e-06
0.000156502
-5.61533e-06
0.000157764
-5.6062e-06
0.000159023
-5.59127e-06
0.000160276
-5.57049e-06
0.000161523
-5.54382e-06
0.000162762
-5.51118e-06
0.000163992
-5.47249e-06
0.000165211
-5.42762e-06
0.000166419
-5.37642e-06
0.000167613
-5.31873e-06
0.000168792
-5.25432e-06
0.000169955
-5.18296e-06
0.0001711
-5.10433e-06
0.000172226
-5.01809e-06
0.000173329
-4.92383e-06
0.00017441
-4.82107e-06
0.000175465
-4.70923e-06
0.000176493
-4.58766e-06
0.000177492
-4.45558e-06
0.000178458
-4.31206e-06
0.000179391
-4.15603e-06
0.000180285
-3.98622e-06
0.00018114
-3.8011e-06
0.000181951
-3.59888e-06
0.000182715
-3.37741e-06
0.000183427
-3.1341e-06
0.000184083
-2.86586e-06
0.000184678
-2.5689e-06
0.000185207
-2.23865e-06
0.000185663
-1.86949e-06
0.00018604
-1.45449e-06
0.00018633
-9.85127e-07
0.000186526
-4.50801e-07
0.000186619
1.61552e-07
0.000186603
8.68053e-07
0.000186471
1.68883e-06
0.000186223
2.64902e-06
0.000185862
3.77933e-06
0.000185408
5.11643e-06
0.000184898
6.70237e-06
0.000184408
8.58155e-06
0.000184062
1.07927e-05
0.000184055
1.33513e-05
0.000184658
1.62135e-05
0.00018616
1.92117e-05
2.19611e-05
0.000188645
0.000130696
-6.79387e-07
0.000130939
-1.29495e-06
0.000131286
-1.82745e-06
0.000131725
-2.29776e-06
0.000132246
-2.71876e-06
0.000132842
-3.09917e-06
0.000133505
-3.44519e-06
0.000134231
-3.76164e-06
0.000135013
-4.05227e-06
0.000135847
-4.32007e-06
0.00013673
-4.56744e-06
0.000137657
-4.7964e-06
0.000138625
-5.00861e-06
0.000139632
-5.20547e-06
0.000140673
-5.38815e-06
0.000141748
-5.55768e-06
0.000142853
-5.71491e-06
0.000143987
-5.86058e-06
0.000145146
-5.99533e-06
0.000146329
-6.11971e-06
0.000147534
-6.2342e-06
0.000148759
-6.33922e-06
0.000150002
-6.43513e-06
0.000151262
-6.52224e-06
0.000152537
-6.60083e-06
0.000153825
-6.67115e-06
0.000155125
-6.7334e-06
0.000156435
-6.78776e-06
0.000157754
-6.83439e-06
0.000159079
-6.87343e-06
0.000160411
-6.90498e-06
0.000161746
-6.92915e-06
0.000163084
-6.946e-06
0.000164424
-6.9556e-06
0.000165763
-6.95798e-06
0.000167101
-6.95316e-06
0.000168437
-6.94116e-06
0.000169767
-6.92194e-06
0.000171093
-6.89548e-06
0.000172411
-6.86171e-06
0.00017372
-6.82055e-06
0.00017502
-6.77189e-06
0.000176308
-6.71559e-06
0.000177583
-6.65149e-06
0.000178844
-6.57936e-06
0.000180089
-6.49897e-06
0.000181316
-6.41001e-06
0.000182524
-6.31214e-06
0.000183711
-6.20495e-06
0.000184875
-6.08794e-06
0.000186014
-5.96056e-06
0.000187127
-5.82216e-06
0.000188212
-5.67195e-06
0.000189265
-5.50903e-06
0.000190286
-5.33236e-06
0.00019127
-5.14071e-06
0.000192217
-4.93261e-06
0.000193122
-4.70636e-06
0.000193983
-4.45997e-06
0.000194797
-4.19104e-06
0.00019556
-3.89675e-06
0.000196268
-3.57377e-06
0.000196917
-3.21807e-06
0.000197503
-2.82488e-06
0.000198022
-2.38846e-06
0.00019847
-1.9019e-06
0.000198841
-1.35692e-06
0.000199134
-7.43578e-07
0.000199346
-5.00819e-08
0.000199476
7.37525e-07
0.00019953
1.635e-06
0.000199518
2.66126e-06
0.00019946
3.83728e-06
0.000199391
5.18525e-06
0.000199367
6.72644e-06
0.000199471
8.47716e-06
0.000199823
1.04413e-05
0.000200576
1.25982e-05
0.000201907
1.48829e-05
0.000203957
1.71608e-05
1.92041e-05
0.000206714
0.000139845
-8.05019e-07
0.000140098
-1.54805e-06
0.000140461
-2.19033e-06
0.000140922
-2.75864e-06
0.000141471
-3.2676e-06
0.000142099
-3.72745e-06
0.0001428
-4.14565e-06
0.000143566
-4.52803e-06
0.000144393
-4.87911e-06
0.000145276
-5.20252e-06
0.00014621
-5.50117e-06
0.000147191
-5.77751e-06
0.000148216
-6.03354e-06
0.000149282
-6.27097e-06
0.000150385
-6.49122e-06
0.000151523
-6.69553e-06
0.000152693
-6.88493e-06
0.000153893
-7.06033e-06
0.000155121
-7.2225e-06
0.000156373
-7.37211e-06
0.000157649
-7.50973e-06
0.000158946
-7.63589e-06
0.000160262
-7.751e-06
0.000161595
-7.85546e-06
0.000162944
-7.94961e-06
0.000164307
-8.03373e-06
0.000165682
-8.10809e-06
0.000167067
-8.17289e-06
0.000168461
-8.22834e-06
0.000169863
-8.2746e-06
0.00017127
-8.31181e-06
0.000172681
-8.34008e-06
0.000174095
-8.3595e-06
0.000175509
-8.37016e-06
0.000176924
-8.37211e-06
0.000178336
-8.36536e-06
0.000179745
-8.34994e-06
0.000181149
-8.32582e-06
0.000182547
-8.29297e-06
0.000183937
-8.25132e-06
0.000185317
-8.20078e-06
0.000186686
-8.14123e-06
0.000188044
-8.07251e-06
0.000189387
-7.99443e-06
0.000190714
-7.90676e-06
0.000192025
-7.80922e-06
0.000193316
-7.70146e-06
0.000194587
-7.58311e-06
0.000195836
-7.45369e-06
0.000197061
-7.31267e-06
0.00019826
-7.15943e-06
0.000199431
-6.99322e-06
0.000200572
-6.81321e-06
0.000201682
-6.61839e-06
0.000202757
-6.40763e-06
0.000203796
-6.17958e-06
0.000204796
-5.9327e-06
0.000205755
-5.66518e-06
0.00020667
-5.37489e-06
0.000207539
-5.05938e-06
0.000208358
-4.71577e-06
0.000209125
-4.34069e-06
0.000209837
-3.93019e-06
0.000210492
-3.47966e-06
0.000211087
-2.98373e-06
0.000211621
-2.4361e-06
0.000212094
-1.82952e-06
0.000212506
-1.15559e-06
0.00021286
-4.04829e-07
0.000213165
4.3334e-07
0.00021343
1.36964e-06
0.000213676
2.41563e-06
0.00021393
3.58267e-06
0.000214235
4.8803e-06
0.000214648
6.31403e-06
0.000215243
7.88191e-06
0.000216114
9.56971e-06
0.000217368
1.13443e-05
0.000219105
1.31458e-05
0.000221386
1.48801e-05
1.64194e-05
0.000224171
0.000149635
-9.34299e-07
0.000149898
-1.81103e-06
0.000150277
-2.56927e-06
0.00015076
-3.24143e-06
0.000151336
-3.8439e-06
0.000151997
-4.38829e-06
0.000152735
-4.88334e-06
0.000153543
-5.33589e-06
0.000154415
-5.75131e-06
0.000155346
-6.13385e-06
0.000156332
-6.48702e-06
0.000157369
-6.81367e-06
0.000158451
-7.11621e-06
0.000159577
-7.39665e-06
0.000160743
-7.65671e-06
0.000161945
-7.89782e-06
0.000163182
-8.12123e-06
0.00016445
-8.32802e-06
0.000165747
-8.51909e-06
0.00016707
-8.69525e-06
0.000168418
-8.85719e-06
0.000169788
-9.0055e-06
0.000171177
-9.14072e-06
0.000172585
-9.26329e-06
0.00017401
-9.37361e-06
0.000175448
-9.47205e-06
0.000176899
-9.55889e-06
0.000178361
-9.63441e-06
0.000179832
-9.69884e-06
0.00018131
-9.75237e-06
0.000182793
-9.79518e-06
0.000184281
-9.8274e-06
0.000185771
-9.84915e-06
0.000187261
-9.86052e-06
0.000188751
-9.86158e-06
0.000190238
-9.85237e-06
0.000191721
-9.83291e-06
0.000193199
-9.80318e-06
0.000194669
-9.76316e-06
0.000196131
-9.71278e-06
0.000197582
-9.65193e-06
0.000199022
-9.5805e-06
0.000200448
-9.49832e-06
0.000201859
-9.40518e-06
0.000203253
-9.30082e-06
0.000204629
-9.18496e-06
0.000205985
-9.05722e-06
0.000207319
-8.91718e-06
0.00020863
-8.76436e-06
0.000209915
-8.59817e-06
0.000211174
-8.41795e-06
0.000212404
-8.22292e-06
0.000213603
-8.0122e-06
0.000214769
-7.78475e-06
0.000215901
-7.53937e-06
0.000216996
-7.27471e-06
0.000218053
-6.98918e-06
0.000219069
-6.68097e-06
0.000220042
-6.348e-06
0.00022097
-5.98788e-06
0.000221852
-5.59784e-06
0.000222687
-5.17476e-06
0.000223471
-4.71504e-06
0.000224206
-4.2146e-06
0.000224892
-3.66884e-06
0.000225528
-3.07259e-06
0.000226119
-2.42015e-06
0.000226668
-1.70532e-06
0.000227185
-9.21481e-07
0.00022768
-6.17974e-08
0.00022817
8.8e-07
0.000228677
1.90832e-06
0.000229233
3.02675e-06
0.000229878
4.23571e-06
0.000230661
5.53089e-06
0.000231642
6.90106e-06
0.000232886
8.32561e-06
0.000234458
9.77193e-06
0.000236411
1.11933e-05
0.000238762
1.2529e-05
1.37086e-05
0.000241472
0.00016011
-1.06741e-06
0.000160383
-2.08378e-06
0.000160777
-2.96411e-06
0.000161282
-3.74594e-06
0.000161886
-4.44749e-06
0.000162579
-5.0816e-06
0.000163354
-5.65827e-06
0.000164204
-6.18537e-06
0.000165122
-6.6691e-06
0.000166102
-7.11444e-06
0.000167141
-7.52544e-06
0.000168233
-7.90545e-06
0.000169374
-8.25726e-06
0.000170561
-8.58324e-06
0.00017179
-8.88537e-06
0.000173057
-9.16536e-06
0.000174361
-9.42465e-06
0.000175698
-9.66449e-06
0.000177065
-9.88596e-06
0.00017846
-1.009e-05
0.00017988
-1.02774e-05
0.000181324
-1.04489e-05
0.000182788
-1.06051e-05
0.000184272
-1.07465e-05
0.000185772
-1.08736e-05
0.000187287
-1.09868e-05
0.000188815
-1.10864e-05
0.000190354
-1.11729e-05
0.000191901
-1.12464e-05
0.000193456
-1.13072e-05
0.000195017
-1.13555e-05
0.000196581
-1.13914e-05
0.000198147
-1.14151e-05
0.000199714
-1.14268e-05
0.000201279
-1.14264e-05
0.000202841
-1.14142e-05
0.000204398
-1.139e-05
0.000205949
-1.13539e-05
0.000207492
-1.13058e-05
0.000209025
-1.12458e-05
0.000210547
-1.11737e-05
0.000212056
-1.10893e-05
0.000213551
-1.09926e-05
0.000215029
-1.08833e-05
0.000216489
-1.07611e-05
0.00021793
-1.06258e-05
0.00021935
-1.04769e-05
0.000220747
-1.03141e-05
0.00022212
-1.01368e-05
0.000223466
-9.94449e-06
0.000224785
-9.73641e-06
0.000226074
-9.51182e-06
0.000227332
-9.26983e-06
0.000228556
-9.00941e-06
0.000229747
-8.72941e-06
0.0002309
-8.42849e-06
0.000232016
-8.10516e-06
0.000233093
-7.7577e-06
0.00023413
-7.3842e-06
0.000235124
-6.98248e-06
0.000236077
-6.55013e-06
0.000236986
-6.08444e-06
0.000237854
-5.58243e-06
0.00023868
-5.04085e-06
0.000239467
-4.45616e-06
0.000240219
-3.82463e-06
0.000240942
-3.14241e-06
0.000241642
-2.40566e-06
0.000242331
-1.61073e-06
0.000243024
-7.54427e-07
0.000243738
1.65794e-07
0.000244497
1.14992e-06
0.000245328
2.19529e-06
0.000246267
3.29695e-06
0.000247352
4.44578e-06
0.000248625
5.62752e-06
0.000250129
6.82186e-06
0.000251899
8.00188e-06
0.000253958
9.13435e-06
0.000256306
1.01814e-05
1.11049e-05
0.000258909
0.000171318
-1.20453e-06
0.000171601
-2.36621e-06
0.000172011
-3.3747e-06
0.000172537
-4.27195e-06
0.000173168
-5.07813e-06
0.000173894
-5.80719e-06
0.000174706
-6.4703e-06
0.000175597
-7.07638e-06
0.000176561
-7.63251e-06
0.000177591
-8.14437e-06
0.000178682
-8.6166e-06
0.00017983
-9.05306e-06
0.00018103
-9.45698e-06
0.000182278
-9.83105e-06
0.00018357
-1.01776e-05
0.000184904
-1.04985e-05
0.000186275
-1.07956e-05
0.000187681
-1.10702e-05
0.000189118
-1.13235e-05
0.000190585
-1.15568e-05
0.000192079
-1.17708e-05
0.000193597
-1.19664e-05
0.000195136
-1.21444e-05
0.000196695
-1.23053e-05
0.000198272
-1.24497e-05
0.000199863
-1.25781e-05
0.000201468
-1.26909e-05
0.000203084
-1.27884e-05
0.000204709
-1.2871e-05
0.000206341
-1.29389e-05
0.000207978
-1.29925e-05
0.000209619
-1.30318e-05
0.000211261
-1.30571e-05
0.000212903
-1.30686e-05
0.000214543
-1.30662e-05
0.000216179
-1.30502e-05
0.00021781
-1.30205e-05
0.000219434
-1.29772e-05
0.000221048
-1.29202e-05
0.000222652
-1.28496e-05
0.000224244
-1.27652e-05
0.000225822
-1.26669e-05
0.000227384
-1.25546e-05
0.000228929
-1.2428e-05
0.000230455
-1.2287e-05
0.00023196
-1.21311e-05
0.000233444
-1.19601e-05
0.000234903
-1.17735e-05
0.000236337
-1.15709e-05
0.000237745
-1.13516e-05
0.000239123
-1.11151e-05
0.000240472
-1.08605e-05
0.00024179
-1.05871e-05
0.000243074
-1.02939e-05
0.000244325
-9.97979e-06
0.00024554
-9.64364e-06
0.000246719
-9.28407e-06
0.000247861
-8.89961e-06
0.000248965
-8.48861e-06
0.000250032
-8.0493e-06
0.000251062
-7.57973e-06
0.000252055
-7.07781e-06
0.000253014
-6.54135e-06
0.000253942
-5.96808e-06
0.000254841
-5.35571e-06
0.000255719
-4.70204e-06
0.000256581
-4.00505e-06
0.000257439
-3.26313e-06
0.000258303
-2.47523e-06
0.00025919
-1.64114e-06
0.000260117
-7.61587e-07
0.000261106
1.61278e-07
0.000262179
1.12213e-06
0.000263364
2.11258e-06
0.000264687
3.12222e-06
0.000266177
4.13722e-06
0.000267859
5.1405e-06
0.000269749
6.11188e-06
0.000271854
7.02893e-06
0.000274167
7.86867e-06
8.61043e-06
0.000276661
0.000183312
-1.34584e-06
0.000183604
-2.65827e-06
0.00018403
-3.80086e-06
0.000184577
-4.81921e-06
0.000185235
-5.7355e-06
0.000185992
-6.5647e-06
0.000186841
-7.31908e-06
0.000187774
-8.00862e-06
0.000188782
-8.64126e-06
0.000189862
-9.22341e-06
0.000191006
-9.76033e-06
0.000192209
-1.02564e-05
0.000193467
-1.07152e-05
0.000194777
-1.114e-05
0.000196133
-1.15333e-05
0.000197532
-1.18973e-05
0.00019897
-1.2234e-05
0.000200445
-1.2545e-05
0.000201954
-1.28317e-05
0.000203493
-1.30954e-05
0.000205059
-1.33372e-05
0.000206651
-1.35579e-05
0.000208265
-1.37585e-05
0.0002099
-1.39395e-05
0.000211552
-1.41017e-05
0.00021322
-1.42456e-05
0.000214901
-1.43717e-05
0.000216593
-1.44803e-05
0.000218294
-1.4572e-05
0.000220003
-1.46469e-05
0.000221716
-1.47055e-05
0.000223432
-1.47478e-05
0.00022515
-1.47743e-05
0.000226866
-1.47849e-05
0.00022858
-1.47799e-05
0.000230289
-1.47594e-05
0.000231993
-1.47234e-05
0.000233688
-1.4672e-05
0.000235373
-1.46052e-05
0.000237046
-1.4523e-05
0.000238707
-1.44253e-05
0.000240352
-1.4312e-05
0.00024198
-1.4183e-05
0.000243591
-1.40382e-05
0.000245181
-1.38772e-05
0.00024675
-1.36999e-05
0.000248296
-1.35058e-05
0.000249817
-1.32947e-05
0.000251313
-1.30661e-05
0.000252781
-1.28194e-05
0.00025422
-1.25541e-05
0.000255629
-1.22696e-05
0.000257007
-1.19651e-05
0.000258353
-1.16397e-05
0.000259666
-1.12927e-05
0.000260946
-1.09229e-05
0.000262191
-1.05294e-05
0.000263402
-1.01109e-05
0.00026458
-9.66625e-06
0.000265725
-9.19408e-06
0.000266838
-8.69307e-06
0.000267922
-8.16185e-06
0.00026898
-7.5991e-06
0.000270016
-7.00359e-06
0.000271034
-6.37426e-06
0.000272043
-5.71033e-06
0.000273049
-5.01142e-06
0.000274064
-4.27774e-06
0.000275099
-3.51023e-06
0.000276168
-2.71074e-06
0.000277289
-1.88225e-06
0.000278479
-1.0288e-06
0.000279757
-1.55632e-07
0.000281141
7.29015e-07
0.000282648
1.61486e-06
0.000284296
2.48937e-06
0.000286097
3.33965e-06
0.000288057
4.15139e-06
0.000290176
4.9099e-06
0.000292443
5.60151e-06
6.21521e-06
0.000294838
0.000196145
-1.49144e-06
0.000196446
-2.95986e-06
0.000196888
-4.24237e-06
0.000197456
-5.38739e-06
0.00019814
-6.41916e-06
0.000198929
-7.35363e-06
0.000199814
-8.2041e-06
0.000200787
-8.98155e-06
0.000201841
-9.6948e-06
0.000202968
-1.0351e-05
0.000204164
-1.0956e-05
0.000205423
-1.15148e-05
0.000206739
-1.20315e-05
0.000208109
-1.25095e-05
0.000209528
-1.29519e-05
0.000210992
-1.3361e-05
0.000212498
-1.37392e-05
0.000214041
-1.40883e-05
0.000215619
-1.44098e-05
0.00021723
-1.47053e-05
0.000218869
-1.49758e-05
0.000220533
-1.52225e-05
0.000222222
-1.54464e-05
0.00022393
-1.56481e-05
0.000225658
-1.58285e-05
0.0002274
-1.59882e-05
0.000229157
-1.61277e-05
0.000230924
-1.62475e-05
0.000232701
-1.63481e-05
0.000234484
-1.64298e-05
0.000236272
-1.6493e-05
0.000238062
-1.65379e-05
0.000239853
-1.65649e-05
0.000241642
-1.65741e-05
0.000243428
-1.65657e-05
0.000245209
-1.65399e-05
0.000246983
-1.64967e-05
0.000248747
-1.64363e-05
0.000250501
-1.63587e-05
0.000252242
-1.6264e-05
0.000253969
-1.6152e-05
0.00025568
-1.60227e-05
0.000257374
-1.58761e-05
0.000259048
-1.57121e-05
0.000260701
-1.55303e-05
0.000262332
-1.53307e-05
0.00026394
-1.5113e-05
0.000265522
-1.48768e-05
0.000267078
-1.46217e-05
0.000268606
-1.43475e-05
0.000270106
-1.40536e-05
0.000271576
-1.37395e-05
0.000273015
-1.34047e-05
0.000274424
-1.30484e-05
0.000275802
-1.26701e-05
0.000277148
-1.2269e-05
0.000278463
-1.18444e-05
0.000279748
-1.13955e-05
0.000281003
-1.09215e-05
0.000282231
-1.04216e-05
0.000283433
-9.89524e-06
0.000284613
-9.34171e-06
0.000285774
-8.76056e-06
0.000286922
-8.15154e-06
0.000288063
-7.51468e-06
0.000289203
-6.85039e-06
0.000290351
-6.15958e-06
0.000291517
-5.44373e-06
0.000292712
-4.70509e-06
0.000293948
-3.94672e-06
0.000295239
-3.17263e-06
0.000296598
-2.38778e-06
0.00029804
-1.59807e-06
0.000299579
-8.09811e-07
0.000301224
-3.07621e-08
0.000302985
7.29003e-07
0.000304864
1.46e-06
0.000306864
2.15192e-06
0.000308979
2.79508e-06
0.000311199
3.38171e-06
3.9061e-06
0.000313508
0.000209876
-1.64141e-06
0.000210187
-3.27084e-06
0.000210644
-4.69888e-06
0.000211232
-5.97601e-06
0.000211942
-7.12849e-06
0.000212761
-8.17325e-06
0.000213682
-9.12452e-06
0.000214695
-9.99427e-06
0.000215792
-1.07922e-05
0.000216968
-1.15262e-05
0.000218215
-1.22028e-05
0.000219527
-1.28274e-05
0.000220901
-1.34047e-05
0.00022233
-1.39385e-05
0.000223811
-1.44322e-05
0.000225339
-1.48886e-05
0.00022691
-1.53101e-05
0.00022852
-1.56988e-05
0.000230167
-1.60565e-05
0.000231847
-1.63849e-05
0.000233557
-1.66852e-05
0.000235293
-1.69587e-05
0.000237054
-1.72065e-05
0.000238836
-1.74294e-05
0.000240636
-1.76283e-05
0.000242452
-1.7804e-05
0.000244281
-1.7957e-05
0.000246122
-1.80878e-05
0.000247971
-1.81971e-05
0.000249827
-1.82853e-05
0.000251687
-1.83527e-05
0.000253549
-1.83997e-05
0.000255411
-1.84266e-05
0.000257271
-1.84337e-05
0.000259127
-1.84211e-05
0.000260977
-1.83892e-05
0.000262818
-1.8338e-05
0.00026465
-1.82677e-05
0.00026647
-1.81784e-05
0.000268276
-1.80701e-05
0.000270067
-1.79429e-05
0.000271842
-1.77968e-05
0.000273597
-1.76317e-05
0.000275333
-1.74476e-05
0.000277047
-1.72443e-05
0.000278739
-1.70218e-05
0.000280406
-1.67799e-05
0.000282048
-1.65184e-05
0.000283663
-1.6237e-05
0.000285251
-1.59354e-05
0.000286811
-1.56134e-05
0.000288342
-1.52706e-05
0.000289844
-1.49066e-05
0.000291317
-1.45211e-05
0.000292761
-1.41137e-05
0.000294176
-1.3684e-05
0.000295563
-1.32316e-05
0.000296924
-1.27561e-05
0.00029826
-1.22574e-05
0.000299574
-1.17352e-05
0.000300868
-1.11894e-05
0.000302146
-1.06201e-05
0.000303414
-1.00277e-05
0.000304675
-9.4126e-06
0.000305936
-8.77583e-06
0.000307204
-8.11864e-06
0.000308488
-7.4428e-06
0.000309794
-6.75062e-06
0.000311134
-6.04498e-06
0.000312517
-5.32944e-06
0.000313953
-4.60821e-06
0.000315451
-3.88618e-06
0.000317022
-3.16883e-06
0.000318674
-2.46209e-06
0.000320416
-1.77231e-06
0.00032225
-1.10523e-06
0.000324178
-4.67464e-07
0.000326195
1.34478e-07
0.000328296
6.94353e-07
0.00033047
1.20734e-06
1.67051e-06
0.000332706
0.000224569
-1.79571e-06
0.000224889
-3.59099e-06
0.00022536
-5.16992e-06
0.000225968
-6.58442e-06
0.000226703
-7.86266e-06
0.000227552
-9.02256e-06
0.000228507
-1.00792e-05
0.000229558
-1.10455e-05
0.000230698
-1.19321e-05
0.00023192
-1.27475e-05
0.000233216
-1.34989e-05
0.000234582
-1.41925e-05
0.00023601
-1.48331e-05
0.000237497
-1.54252e-05
0.000239038
-1.59725e-05
0.000240627
-1.6478e-05
0.000242262
-1.69445e-05
0.000243938
-1.73744e-05
0.000245652
-1.77696e-05
0.000247399
-1.81319e-05
0.000249177
-1.8463e-05
0.000250983
-1.8764e-05
0.000252813
-1.90363e-05
0.000254665
-1.92808e-05
0.000256535
-1.94985e-05
0.000258422
-1.96902e-05
0.000260322
-1.98566e-05
0.000262233
-1.99984e-05
0.000264152
-2.01161e-05
0.000266077
-2.02103e-05
0.000268006
-2.02815e-05
0.000269937
-2.03299e-05
0.000271867
-2.03561e-05
0.000273794
-2.03603e-05
0.000275716
-2.03428e-05
0.000277631
-2.03039e-05
0.000279537
-2.02438e-05
0.000281432
-2.01627e-05
0.000283315
-2.00607e-05
0.000285183
-1.9938e-05
0.000287035
-1.97948e-05
0.00028887
-1.96309e-05
0.000290685
-1.94466e-05
0.000292479
-1.92419e-05
0.000294252
-1.90166e-05
0.000296001
-1.87709e-05
0.000297726
-1.85047e-05
0.000299426
-1.82178e-05
0.000301099
-1.79102e-05
0.000302746
-1.75819e-05
0.000304365
-1.72326e-05
0.000305957
-1.68623e-05
0.000307522
-1.64709e-05
0.000309059
-1.60582e-05
0.00031057
-1.56242e-05
0.000312055
-1.51689e-05
0.000313516
-1.46923e-05
0.000314954
-1.41944e-05
0.000316372
-1.36755e-05
0.000317773
-1.3136e-05
0.00031916
-1.25762e-05
0.000320537
-1.19969e-05
0.000321909
-1.1399e-05
0.00032328
-1.07838e-05
0.000324657
-1.01526e-05
0.000326046
-9.50745e-06
0.000327453
-8.85051e-06
0.000328887
-8.18445e-06
0.000330355
-7.51238e-06
0.000331863
-6.83783e-06
0.00033342
-6.16474e-06
0.000335031
-5.49743e-06
0.000336703
-4.8405e-06
0.000338439
-4.19874e-06
0.000340244
-3.57699e-06
0.000342119
-2.97997e-06
0.000344063
-2.41221e-06
0.000346076
-1.87755e-06
0.000348149
-1.37883e-06
0.000350275
-9.18665e-07
-4.98281e-07
0.000352444
0.00024029
-1.95422e-06
0.000240619
-3.91993e-06
0.000241104
-5.65481e-06
0.000241731
-7.21168e-06
0.000242489
-8.6205e-06
0.000243367
-9.90017e-06
0.000244354
-1.10666e-05
0.000245442
-1.21336e-05
0.000246623
-1.31126e-05
0.000247889
-1.40129e-05
0.000249232
-1.48424e-05
0.000250648
-1.56077e-05
0.000252129
-1.63143e-05
0.000253671
-1.69671e-05
0.000255269
-1.757e-05
0.000256918
-1.81265e-05
0.000258614
-1.86397e-05
0.000260352
-1.91121e-05
0.000262128
-1.9546e-05
0.00026394
-1.99433e-05
0.000265783
-2.03058e-05
0.000267655
-2.0635e-05
0.000269551
-2.09322e-05
0.000271469
-2.11986e-05
0.000273406
-2.14352e-05
0.000275359
-2.1643e-05
0.000277326
-2.18227e-05
0.000279303
-2.19751e-05
0.000281288
-2.21009e-05
0.000283279
-2.22007e-05
0.000285273
-2.2275e-05
0.000287267
-2.23242e-05
0.000289261
-2.23489e-05
0.00029125
-2.23495e-05
0.000293234
-2.23263e-05
0.00029521
-2.22795e-05
0.000297176
-2.22097e-05
0.000299131
-2.21169e-05
0.000301072
-2.20015e-05
0.000302998
-2.18636e-05
0.000304907
-2.17035e-05
0.000306797
-2.15213e-05
0.000308668
-2.13172e-05
0.000310518
-2.10914e-05
0.000312345
-2.08438e-05
0.00031415