/*--------------------------------*- C++ -*----------------------------------*\
| =========                 |                                                 |
| \\      /  F ield         | OpenFOAM: The Open Source CFD Toolbox           |
|  \\    /   O peration     | Version:  2106                                  |
|   \\  /    A nd           | Website:  www.openfoam.com                      |
|    \\/     M anipulation  |                                                 |
\*---------------------------------------------------------------------------*/
FoamFile
{
    version     2.0;
    format      ascii;
    arch        "LSB;label=32;scalar=64";
    class       volScalarField;
    location    "7";
    object      T;
}
// * * * * * * * * * * * * * * * * * * * * * * * * * * * * * * * * * * * * * //

dimensions      [0 0 0 1 0 0 0];

internalField   nonuniform List<scalar> 
12013
(
300.003
300.011
300.018
300.025
300.033
300.042
300.05
300.059
300.069
300.078
300.088
300.099
300.109
300.121
300.132
300.144
300.157
300.17
300.183
300.197
300.211
300.226
300.241
300.257
300.273
300.29
300.307
300.325
300.343
300.362
300.382
300.402
300.423
300.444
300.466
300.489
300.513
300.537
300.561
300.587
300.613
300.64
300.668
300.696
300.726
300.756
300.787
300.819
300.851
300.885
300.92
300.955
300.992
301.03
301.069
301.108
301.149
301.192
301.235
301.28
301.326
301.374
301.423
301.474
301.526
301.58
301.637
301.695
301.755
301.818
301.883
301.952
302.023
302.099
302.178
302.263
302.354
302.452
302.561
302.685
302.832
300.003
300.011
300.018
300.025
300.033
300.042
300.05
300.059
300.069
300.078
300.088
300.099
300.109
300.121
300.132
300.144
300.157
300.17
300.183
300.197
300.211
300.226
300.241
300.257
300.273
300.29
300.307
300.325
300.343
300.362
300.382
300.402
300.423
300.444
300.466
300.489
300.513
300.537
300.561
300.587
300.613
300.64
300.668
300.696
300.726
300.756
300.787
300.819
300.851
300.885
300.92
300.955
300.992
301.03
301.068
301.108
301.149
301.191
301.235
301.28
301.326
301.373
301.423
301.473
301.525
301.58
301.636
301.694
301.754
301.816
301.882
301.95
302.021
302.096
302.175
302.258
302.347
302.444
302.548
302.663
302.79
300.003
300.01
300.018
300.025
300.033
300.042
300.05
300.059
300.069
300.078
300.088
300.099
300.109
300.121
300.132
300.144
300.157
300.17
300.183
300.197
300.211
300.226
300.241
300.257
300.273
300.29
300.307
300.325
300.343
300.362
300.382
300.402
300.423
300.444
300.466
300.489
300.512
300.537
300.561
300.587
300.613
300.64
300.668
300.696
300.725
300.755
300.786
300.818
300.851
300.885
300.919
300.955
300.991
301.029
301.068
301.108
301.149
301.191
301.234
301.279
301.325
301.372
301.421
301.472
301.524
301.578
301.634
301.691
301.751
301.813
301.878
301.945
302.016
302.089
302.167
302.248
302.335
302.426
302.524
302.628
302.735
300.003
300.01
300.018
300.025
300.033
300.042
300.05
300.059
300.069
300.078
300.088
300.099
300.109
300.121
300.132
300.144
300.157
300.17
300.183
300.197
300.211
300.226
300.241
300.257
300.273
300.29
300.307
300.325
300.343
300.362
300.382
300.402
300.423
300.444
300.466
300.489
300.512
300.536
300.561
300.587
300.613
300.64
300.667
300.696
300.725
300.755
300.786
300.818
300.851
300.884
300.919
300.954
300.991
301.028
301.067
301.107
301.148
301.19
301.233
301.277
301.323
301.371
301.419
301.469
301.521
301.575
301.63
301.687
301.747
301.808
301.872
301.938
302.007
302.079
302.155
302.233
302.316
302.402
302.492
302.584
302.678
300.003
300.01
300.018
300.025
300.033
300.042
300.05
300.059
300.069
300.078
300.088
300.099
300.109
300.121
300.132
300.144
300.157
300.17
300.183
300.197
300.211
300.226
300.241
300.257
300.273
300.29
300.307
300.325
300.343
300.362
300.382
300.402
300.423
300.444
300.466
300.489
300.512
300.536
300.561
300.586
300.612
300.639
300.667
300.695
300.725
300.755
300.786
300.817
300.85
300.883
300.918
300.953
300.99
301.027
301.066
301.105
301.146
301.188
301.231
301.275
301.321
301.368
301.416
301.466
301.518
301.571
301.625
301.682
301.74
301.801
301.863
301.928
301.996
302.065
302.138
302.213
302.291
302.371
302.453
302.536
302.619
300.003
300.01
300.018
300.025
300.033
300.042
300.05
300.059
300.069
300.078
300.088
300.099
300.109
300.121
300.132
300.144
300.157
300.17
300.183
300.197
300.211
300.226
300.241
300.257
300.273
300.29
300.307
300.325
300.343
300.362
300.382
300.402
300.423
300.444
300.466
300.489
300.512
300.536
300.56
300.586
300.612
300.639
300.666
300.695
300.724
300.754
300.785
300.816
300.849
300.882
300.917
300.952
300.988
301.026
301.064
301.103
301.144
301.186
301.228
301.272
301.318
301.364
301.412
301.462
301.512
301.565
301.619
301.674
301.732
301.791
301.852
301.915
301.98
302.047
302.116
302.188
302.26
302.335
302.41
302.485
302.559
300.003
300.01
300.018
300.025
300.033
300.042
300.05
300.059
300.069
300.078
300.088
300.099
300.109
300.121
300.132
300.144
300.157
300.169
300.183
300.197
300.211
300.226
300.241
300.257
300.273
300.289
300.307
300.325
300.343
300.362
300.381
300.402
300.422
300.444
300.466
300.488
300.511
300.535
300.56
300.585
300.611
300.638
300.666
300.694
300.723
300.753
300.784
300.815
300.848
300.881
300.915
300.95
300.987
301.024
301.062
301.101
301.141
301.182
301.225
301.269
301.313
301.359
301.407
301.456
301.506
301.557
301.61
301.665
301.721
301.778
301.838
301.899
301.961
302.025
302.091
302.158
302.226
302.295
302.364
302.432
302.499
300.003
300.01
300.018
300.025
300.033
300.042
300.05
300.059
300.069
300.078
300.088
300.099
300.109
300.121
300.132
300.144
300.157
300.169
300.183
300.197
300.211
300.225
300.241
300.256
300.273
300.289
300.307
300.324
300.343
300.362
300.381
300.401
300.422
300.443
300.465
300.488
300.511
300.535
300.559
300.585
300.611
300.637
300.665
300.693
300.722
300.752
300.782
300.814
300.846
300.879
300.913
300.948
300.984
301.021
301.059
301.098
301.138
301.179
301.221
301.264
301.308
301.353
301.4
301.448
301.497
301.548
301.6
301.653
301.707
301.763
301.82
301.879
301.939
302
302.062
302.125
302.188
302.252
302.315
302.378
302.439
300.003
300.01
300.018
300.025
300.033
300.042
300.05
300.059
300.068
300.078
300.088
300.099
300.109
300.12
300.132
300.144
300.156
300.169
300.183
300.196
300.211
300.225
300.241
300.256
300.272
300.289
300.306
300.324
300.342
300.361
300.381
300.401
300.422
300.443
300.465
300.487
300.51
300.534
300.559
300.584
300.61
300.636
300.664
300.692
300.721
300.75
300.781
300.812
300.844
300.877
300.911
300.946
300.981
301.018
301.055
301.094
301.133
301.174
301.215
301.258
301.301
301.346
301.392
301.439
301.487
301.536
301.587
301.638
301.691
301.745
301.8
301.856
301.913
301.971
302.029
302.088
302.147
302.206
302.264
302.322
302.379
300.003
300.01
300.018
300.025
300.033
300.042
300.05
300.059
300.068
300.078
300.088
300.098
300.109
300.12
300.132
300.144
300.156
300.169
300.183
300.196
300.21
300.225
300.24
300.256
300.272
300.289
300.306
300.324
300.342
300.361
300.38
300.4
300.421
300.442
300.464
300.487
300.51
300.533
300.558
300.583
300.609
300.635
300.662
300.69
300.719
300.749
300.779
300.81
300.842
300.874
300.908
300.942
300.978
301.014
301.051
301.089
301.128
301.168
301.208
301.25
301.293
301.337
301.382
301.428
301.475
301.523
301.571
301.621
301.672
301.724
301.777
301.83
301.884
301.938
301.993
302.048
302.103
302.158
302.212
302.265
302.318
300.003
300.01
300.018
300.025
300.033
300.042
300.05
300.059
300.068
300.078
300.088
300.098
300.109
300.12
300.132
300.144
300.156
300.169
300.182
300.196
300.21
300.225
300.24
300.256
300.272
300.289
300.306
300.323
300.342
300.361
300.38
300.4
300.42
300.442
300.463
300.486
300.509
300.532
300.557
300.582
300.607
300.634
300.661
300.688
300.717
300.746
300.776
300.807
300.839
300.871
300.904
300.938
300.973
301.009
301.045
301.083
301.121
301.16
301.201
301.242
301.283
301.326
301.37
301.415
301.46
301.507
301.554
301.602
301.651
301.7
301.75
301.801
301.852
301.903
301.955
302.006
302.057
302.108
302.158
302.208
302.256
300.003
300.01
300.018
300.025
300.033
300.042
300.05
300.059
300.068
300.078
300.088
300.098
300.109
300.12
300.132
300.144
300.156
300.169
300.182
300.196
300.21
300.225
300.24
300.255
300.272
300.288
300.305
300.323
300.341
300.36
300.379
300.399
300.42
300.441
300.462
300.485
300.508
300.531
300.555
300.58
300.606
300.632
300.659
300.686
300.715
300.744
300.773
300.804
300.835
300.867
300.9
300.933
300.968
301.003
301.039
301.076
301.113
301.152
301.191
301.231
301.272
301.314
301.356
301.4
301.444
301.488
301.534
301.58
301.626
301.674
301.721
301.769
301.817
301.865
301.914
301.962
302.009
302.057
302.103
302.149
302.194
300.003
300.01
300.018
300.025
300.033
300.042
300.05
300.059
300.068
300.078
300.088
300.098
300.109
300.12
300.132
300.144
300.156
300.169
300.182
300.196
300.21
300.224
300.239
300.255
300.271
300.288
300.305
300.322
300.341
300.359
300.378
300.398
300.419
300.44
300.461
300.483
300.506
300.53
300.554
300.578
300.604
300.63
300.656
300.684
300.712
300.74
300.77
300.8
300.831
300.862
300.895
300.928
300.962
300.996
301.031
301.068
301.104
301.142
301.18
301.219
301.259
301.3
301.341
301.382
301.425
301.468
301.511
301.555
301.6
301.645
301.69
301.735
301.78
301.825
301.87
301.915
301.96
302.004
302.047
302.09
302.132
300.003
300.01
300.018
300.025
300.033
300.042
300.05
300.059
300.068
300.078
300.088
300.098
300.109
300.12
300.131
300.143
300.156
300.168
300.182
300.195
300.209
300.224
300.239
300.255
300.271
300.287
300.304
300.322
300.34
300.358
300.378
300.397
300.418
300.438
300.46
300.482
300.504
300.528
300.552
300.576
300.601
300.627
300.653
300.68
300.708
300.736
300.765
300.795
300.826
300.857
300.889
300.921
300.954
300.988
301.023
301.058
301.094
301.13
301.168
301.206
301.244
301.283
301.323
301.363
301.404
301.445
301.487
301.528
301.571
301.613
301.655
301.698
301.741
301.783
301.825
301.867
301.909
301.95
301.99
302.03
302.069
300.003
300.01
300.018
300.025
300.033
300.041
300.05
300.059
300.068
300.078
300.088
300.098
300.109
300.12
300.131
300.143
300.155
300.168
300.181
300.195
300.209
300.224
300.239
300.254
300.27
300.286
300.303
300.321
300.339
300.357
300.376
300.396
300.416
300.437
300.458
300.48
300.503
300.526
300.549
300.573
300.598
300.624
300.65
300.677
300.704
300.732
300.761
300.79
300.82
300.85
300.881
300.913
300.946
300.979
301.013
301.047
301.082
301.117
301.154
301.19
301.227
301.265
301.303
301.342
301.381
301.42
301.459
301.499
301.539
301.579
301.619
301.659
301.699
301.739
301.778
301.818
301.856
301.895
301.932
301.969
302.006
300.003
300.01
300.018
300.025
300.033
300.041
300.05
300.059
300.068
300.078
300.088
300.098
300.108
300.12
300.131
300.143
300.155
300.168
300.181
300.195
300.209
300.223
300.238
300.253
300.269
300.286
300.303
300.32
300.338
300.356
300.375
300.395
300.415
300.435
300.456
300.478
300.5
300.523
300.546
300.57
300.595
300.62
300.646
300.672
300.699
300.727
300.755
300.784
300.813
300.843
300.873
300.904
300.936
300.968
301.001
301.035
301.068
301.103
301.138
301.173
301.209
301.245
301.281
301.318
301.355
301.393
301.43
301.468
301.506
301.543
301.581
301.619
301.656
301.693
301.73
301.767
301.803
301.839
301.874
301.908
301.943
300.003
300.01
300.018
300.025
300.033
300.041
300.05
300.059
300.068
300.077
300.087
300.098
300.108
300.119
300.131
300.143
300.155
300.167
300.181
300.194
300.208
300.222
300.237
300.253
300.268
300.285
300.302
300.319
300.337
300.355
300.374
300.393
300.413
300.433
300.454
300.476
300.498
300.52
300.543
300.567
300.591
300.616
300.641
300.667
300.694
300.721
300.748
300.776
300.805
300.834
300.864
300.894
300.925
300.957
300.988
301.021
301.053
301.087
301.12
301.154
301.188
301.223
301.258
301.293
301.328
301.363
301.399
301.435
301.47
301.506
301.541
301.576
301.612
301.646
301.681
301.715
301.749
301.782
301.815
301.847
301.879
300.003
300.01
300.018
300.025
300.033
300.041
300.05
300.059
300.068
300.077
300.087
300.097
300.108
300.119
300.13
300.142
300.154
300.167
300.18
300.193
300.207
300.222
300.237
300.252
300.267
300.284
300.3
300.317
300.335
300.353
300.372
300.391
300.411
300.431
300.451
300.473
300.494
300.517
300.539
300.563
300.587
300.611
300.636
300.661
300.687
300.714
300.741
300.768
300.796
300.825
300.854
300.883
300.913
300.943
300.974
301.005
301.037
301.069
301.101
301.133
301.166
301.199
301.232
301.265
301.299
301.332
301.366
301.4
301.433
301.466
301.5
301.533
301.566
301.598
301.63
301.662
301.694
301.725
301.756
301.786
301.815
300.003
300.01
300.018
300.025
300.033
300.041
300.05
300.058
300.068
300.077
300.087
300.097
300.108
300.119
300.13
300.142
300.154
300.166
300.179
300.193
300.207
300.221
300.236
300.251
300.266
300.282
300.299
300.316
300.333
300.351
300.37
300.389
300.408
300.428
300.449
300.469
300.491
300.513
300.535
300.558
300.581
300.605
300.63
300.655
300.68
300.706
300.732
300.759
300.786
300.814
300.842
300.87
300.899
300.929
300.958
300.988
301.018
301.049
301.08
301.111
301.142
301.173
301.205
301.236
301.268
301.3
301.331
301.363
301.394
301.426
301.457
301.488
301.519
301.549
301.579
301.609
301.638
301.667
301.696
301.724
301.752
300.003
300.01
300.018
300.025
300.033
300.041
300.049
300.058
300.067
300.077
300.087
300.097
300.107
300.118
300.13
300.141
300.153
300.166
300.179
300.192
300.206
300.22
300.235
300.25
300.265
300.281
300.297
300.314
300.331
300.349
300.367
300.386
300.405
300.425
300.445
300.466
300.487
300.508
300.53
300.553
300.576
300.599
300.623
300.647
300.672
300.697
300.723
300.749
300.775
300.802
300.829
300.857
300.884
300.913
300.941
300.97
300.999
301.028
301.057
301.087
301.116
301.146
301.176
301.206
301.236
301.266
301.295
301.325
301.355
301.384
301.413
301.442
301.471
301.499
301.527
301.555
301.583
301.61
301.637
301.663
301.689
300.003
300.01
300.017
300.025
300.033
300.041
300.049
300.058
300.067
300.077
300.086
300.096
300.107
300.118
300.129
300.141
300.153
300.165
300.178
300.191
300.205
300.219
300.233
300.248
300.263
300.279
300.295
300.312
300.329
300.347
300.365
300.383
300.402
300.421
300.441
300.461
300.482
300.503
300.525
300.547
300.569
300.592
300.615
300.639
300.663
300.687
300.712
300.738
300.763
300.789
300.815
300.842
300.868
300.895
300.923
300.95
300.978
301.005
301.033
301.061
301.089
301.118
301.146
301.174
301.202
301.23
301.258
301.286
301.314
301.341
301.369
301.396
301.422
301.449
301.475
301.501
301.527
301.552
301.577
301.602
301.626
300.003
300.01
300.017
300.025
300.033
300.041
300.049
300.058
300.067
300.076
300.086
300.096
300.106
300.117
300.128
300.14
300.152
300.164
300.177
300.19
300.204
300.217
300.232
300.247
300.262
300.277
300.293
300.31
300.327
300.344
300.362
300.38
300.398
300.417
300.437
300.457
300.477
300.498
300.519
300.54
300.562
300.584
300.607
300.63
300.653
300.677
300.701
300.725
300.75
300.775
300.8
300.825
300.851
300.877
300.903
300.929
300.955
300.982
301.008
301.035
301.061
301.088
301.114
301.141
301.167
301.194
301.22
301.246
301.272
301.298
301.323
301.349
301.374
301.399
301.423
301.447
301.471
301.495
301.518
301.541
301.564
300.003
300.01
300.017
300.025
300.032
300.04
300.049
300.057
300.066
300.076
300.085
300.095
300.106
300.117
300.128
300.139
300.151
300.163
300.176
300.189
300.202
300.216
300.23
300.245
300.26
300.275
300.291
300.307
300.324
300.341
300.358
300.376
300.394
300.413
300.432
300.451
300.471
300.491
300.512
300.533
300.554
300.576
300.598
300.62
300.642
300.665
300.688
300.712
300.735
300.759
300.783
300.808
300.832
300.857
300.882
300.906
300.931
300.956
300.982
301.007
301.032
301.057
301.082
301.107
301.132
301.156
301.181
301.206
301.23
301.254
301.278
301.301
301.325
301.348
301.371
301.394
301.416
301.438
301.46
301.481
301.502
300.003
300.01
300.017
300.025
300.032
300.04
300.049
300.057
300.066
300.075
300.085
300.095
300.105
300.116
300.127
300.138
300.15
300.162
300.175
300.187
300.201
300.214
300.228
300.243
300.258
300.273
300.288
300.304
300.321
300.337
300.354
300.372
300.39
300.408
300.426
300.445
300.465
300.484
300.504
300.525
300.545
300.566
300.587
300.609
300.631
300.653
300.675
300.697
300.72
300.743
300.766
300.789
300.813
300.836
300.86
300.883
300.907
300.931
300.954
300.978
301.002
301.025
301.049
301.072
301.095
301.119
301.142
301.165
301.187
301.21
301.232
301.254
301.276
301.298
301.319
301.34
301.361
301.382
301.402
301.422
301.441
300.003
300.01
300.017
300.024
300.032
300.04
300.048
300.057
300.066
300.075
300.084
300.094
300.105
300.115
300.126
300.137
300.149
300.161
300.173
300.186
300.199
300.212
300.226
300.24
300.255
300.27
300.285
300.301
300.317
300.333
300.35
300.367
300.385
300.402
300.421
300.439
300.458
300.477
300.496
300.516
300.536
300.556
300.577
300.597
300.618
300.639
300.661
300.682
300.704
300.726
300.748
300.77
300.792
300.814
300.837
300.859
300.881
300.904
300.926
300.948
300.971
300.993
301.015
301.037
301.059
301.081
301.102
301.124
301.145
301.166
301.187
301.207
301.228
301.248
301.268
301.288
301.307
301.326
301.345
301.364
301.382
300.003
300.01
300.017
300.024
300.032
300.04
300.048
300.056
300.065
300.074
300.084
300.094
300.104
300.114
300.125
300.136
300.148
300.159
300.172
300.184
300.197
300.21
300.224
300.238
300.252
300.267
300.282
300.297
300.313
300.329
300.345
300.362
300.379
300.396
300.414
300.432
300.45
300.469
300.487
300.506
300.526
300.545
300.565
300.585
300.605
300.625
300.646
300.666
300.687
300.708
300.729
300.75
300.771
300.792
300.813
300.834
300.855
300.876
300.897
300.919
300.939
300.96
300.981
301.002
301.022
301.043
301.063
301.083
301.103
301.122
301.142
301.161
301.18
301.199
301.218
301.236
301.254
301.272
301.29
301.307
301.324
300.003
300.01
300.017
300.024
300.032
300.039
300.048
300.056
300.065
300.074
300.083
300.093
300.103
300.113
300.124
300.135
300.146
300.158
300.17
300.182
300.195
300.208
300.221
300.235
300.249
300.264
300.278
300.293
300.309
300.324
300.34
300.357
300.373
300.39
300.407
300.424
300.442
300.46
300.478
300.496
300.515
300.534
300.553
300.572
300.591
300.611
300.63
300.65
300.669
300.689
300.709
300.729
300.749
300.769
300.789
300.809
300.829
300.849
300.869
300.888
300.908
300.928
300.947
300.967
300.986
301.005
301.024
301.043
301.061
301.079
301.098
301.116
301.134
301.151
301.169
301.186
301.203
301.219
301.236
301.252
301.268
300.003
300.01
300.017
300.024
300.031
300.039
300.047
300.055
300.064
300.073
300.082
300.092
300.102
300.112
300.123
300.133
300.145
300.156
300.168
300.18
300.193
300.205
300.219
300.232
300.246
300.26
300.274
300.289
300.304
300.319
300.335
300.351
300.367
300.383
300.4
300.417
300.434
300.451
300.468
300.486
300.504
300.522
300.54
300.558
300.577
300.595
300.614
300.633
300.651
300.67
300.689
300.708
300.727
300.746
300.765
300.784
300.802
300.821
300.84
300.858
300.877
300.895
300.914
300.932
300.95
300.968
300.985
301.003
301.02
301.038
301.055
301.071
301.088
301.105
301.121
301.137
301.153
301.168
301.184
301.199
301.214
300.003
300.01
300.017
300.024
300.031
300.039
300.047
300.055
300.063
300.072
300.081
300.091
300.101
300.111
300.121
300.132
300.143
300.154
300.166
300.178
300.19
300.203
300.216
300.229
300.242
300.256
300.27
300.284
300.299
300.314
300.329
300.344
300.36
300.376
300.392
300.408
300.425
300.441
300.458
300.475
300.492
300.509
300.527
300.544
300.562
300.58
300.597
300.615
300.633
300.651
300.669
300.687
300.705
300.723
300.74
300.758
300.776
300.794
300.811
300.829
300.846
300.863
300.881
300.898
300.915
300.931
300.948
300.964
300.981
300.997
301.013
301.029
301.044
301.059
301.075
301.09
301.105
301.119
301.134
301.148
301.162
300.003
300.01
300.016
300.023
300.031
300.038
300.046
300.054
300.063
300.072
300.081
300.09
300.1
300.109
300.12
300.13
300.141
300.152
300.164
300.175
300.187
300.2
300.212
300.225
300.238
300.252
300.266
300.28
300.294
300.308
300.323
300.338
300.353
300.368
300.384
300.399
300.415
300.431
300.448
300.464
300.48
300.497
300.514
300.53
300.547
300.564
300.581
300.598
300.615
300.632
300.649
300.666
300.683
300.7
300.716
300.733
300.75
300.767
300.783
300.8
300.816
300.832
300.849
300.865
300.88
300.896
300.912
300.927
300.943
300.958
300.973
300.987
301.002
301.016
301.031
301.045
301.059
301.072
301.086
301.099
301.112
300.003
300.01
300.016
300.023
300.03
300.038
300.046
300.054
300.062
300.071
300.08
300.089
300.098
300.108
300.118
300.129
300.139
300.15
300.161
300.173
300.185
300.197
300.209
300.222
300.235
300.248
300.261
300.275
300.288
300.302
300.317
300.331
300.346
300.361
300.376
300.391
300.406
300.421
300.437
300.453
300.468
300.484
300.5
300.516
300.532
300.548
300.564
300.581
300.597
300.613
300.629
300.645
300.661
300.677
300.693
300.709
300.725
300.741
300.756
300.772
300.787
300.803
300.818
300.833
300.848
300.863
300.877
300.892
300.906
300.92
300.934
300.948
300.962
300.975
300.989
301.002
301.015
301.028
301.041
301.053
301.065
300.003
300.009
300.016
300.023
300.03
300.037
300.045
300.053
300.061
300.07
300.079
300.088
300.097
300.107
300.117
300.127
300.137
300.148
300.159
300.17
300.182
300.194
300.206
300.218
300.23
300.243
300.256
300.269
300.283
300.296
300.31
300.324
300.338
300.353
300.367
300.382
300.397
300.411
300.426
300.441
300.456
300.472
300.487
300.502
300.518
300.533
300.548
300.564
300.579
300.594
300.61
300.625
300.64
300.655
300.671
300.686
300.701
300.716
300.73
300.745
300.76
300.774
300.788
300.803
300.817
300.831
300.845
300.858
300.872
300.885
300.898
300.911
300.924
300.937
300.95
300.962
300.974
300.986
300.998
301.01
301.022
300.003
300.009
300.016
300.023
300.03
300.037
300.044
300.052
300.06
300.069
300.077
300.086
300.096
300.105
300.115
300.125
300.135
300.146
300.156
300.167
300.179
300.19
300.202
300.214
300.226
300.239
300.251
300.264
300.277
300.291
300.304
300.317
300.331
300.345
300.359
300.373
300.387
300.402
300.416
300.43
300.445
300.459
300.474
300.489
300.503
300.518
300.533
300.547
300.562
300.577
300.591
300.606
300.62
300.635
300.649
300.664
300.678
300.692
300.706
300.72
300.734
300.747
300.761
300.774
300.788
300.801
300.814
300.827
300.84
300.852
300.865
300.877
300.889
300.901
300.913
300.925
300.937
300.948
300.959
300.97
300.981
300.003
300.009
300.016
300.022
300.029
300.036
300.044
300.052
300.06
300.068
300.076
300.085
300.094
300.104
300.113
300.123
300.133
300.143
300.154
300.165
300.176
300.187
300.199
300.21
300.222
300.234
300.247
300.259
300.272
300.285
300.298
300.311
300.324
300.337
300.351
300.365
300.378
300.392
300.406
300.42
300.434
300.448
300.462
300.476
300.49
300.504
300.518
300.532
300.546
300.56
300.574
300.588
300.602
300.616
300.629
300.643
300.656
300.67
300.683
300.696
300.71
300.723
300.736
300.748
300.761
300.773
300.786
300.798
300.81
300.822
300.834
300.846
300.857
300.869
300.88
300.891
300.902
300.913
300.924
300.934
300.945
300.003
300.009
300.015
300.022
300.029
300.036
300.043
300.051
300.059
300.067
300.075
300.084
300.093
300.102
300.111
300.121
300.131
300.141
300.151
300.162
300.173
300.184
300.195
300.207
300.218
300.23
300.242
300.254
300.267
300.279
300.292
300.304
300.317
300.33
300.343
300.357
300.37
300.383
300.397
300.41
300.423
300.437
300.45
300.464
300.477
300.491
300.505
300.518
300.531
300.545
300.558
300.572
300.585
300.598
300.611
300.624
300.637
300.65
300.663
300.675
300.688
300.7
300.713
300.725
300.737
300.749
300.761
300.772
300.784
300.795
300.807
300.818
300.829
300.84
300.85
300.861
300.871
300.882
300.892
300.902
300.912
300.003
300.009
300.015
300.022
300.028
300.035
300.043
300.05
300.058
300.066
300.074
300.083
300.091
300.1
300.11
300.119
300.129
300.139
300.149
300.159
300.17
300.181
300.192
300.203
300.215
300.226
300.238
300.25
300.262
300.274
300.286
300.299
300.311
300.324
300.336
300.349
300.362
300.375
300.388
300.401
300.414
300.427
300.44
300.453
300.466
300.479
300.492
300.505
300.518
300.531
300.544
300.557
300.57
300.582
300.595
300.607
300.62
300.632
300.644
300.657
300.669
300.68
300.692
300.704
300.716
300.727
300.738
300.75
300.761
300.772
300.782
300.793
300.804
300.814
300.824
300.835
300.845
300.854
300.864
300.874
300.883
300.003
300.009
300.015
300.021
300.028
300.035
300.042
300.05
300.057
300.065
300.073
300.082
300.09
300.099
300.108
300.118
300.127
300.137
300.147
300.157
300.168
300.178
300.189
300.2
300.211
300.222
300.234
300.246
300.257
300.269
300.281
300.293
300.306
300.318
300.33
300.343
300.355
300.368
300.38
300.393
300.406
300.418
300.431
300.444
300.456
300.469
300.482
300.494
300.507
300.519
300.532
300.544
300.557
300.569
300.581
300.593
300.605
300.617
300.629
300.641
300.652
300.664
300.675
300.686
300.697
300.709
300.719
300.73
300.741
300.752
300.762
300.772
300.782
300.792
300.802
300.812
300.822
300.831
300.841
300.85
300.859
300.003
300.009
300.015
300.021
300.028
300.035
300.042
300.049
300.057
300.064
300.072
300.081
300.089
300.098
300.107
300.116
300.126
300.135
300.145
300.155
300.165
300.176
300.186
300.197
300.208
300.219
300.231
300.242
300.254
300.265
300.277
300.289
300.301
300.313
300.325
300.337
300.349
300.362
300.374
300.386
300.399
300.411
300.424
300.436
300.448
300.461
300.473
300.485
300.497
300.51
300.522
300.534
300.546
300.558
300.57
300.581
300.593
300.605
300.616
300.627
300.639
300.65
300.661
300.672
300.683
300.694
300.704
300.715
300.725
300.735
300.745
300.755
300.765
300.775
300.785
300.794
300.803
300.813
300.822
300.831
300.84
300.003
300.009
300.015
300.021
300.027
300.034
300.041
300.048
300.056
300.064
300.072
300.08
300.088
300.097
300.106
300.115
300.124
300.134
300.144
300.153
300.164
300.174
300.184
300.195
300.206
300.217
300.228
300.239
300.251
300.262
300.274
300.285
300.297
300.309
300.321
300.333
300.345
300.357
300.369
300.381
300.393
300.406
300.418
300.43
300.442
300.454
300.466
300.478
300.49
300.502
300.514
300.526
300.538
300.549
300.561
300.572
300.584
300.595
300.606
300.618
300.629
300.64
300.65
300.661
300.672
300.682
300.693
300.703
300.713
300.723
300.733
300.743
300.752
300.762
300.771
300.781
300.79
300.799
300.808
300.816
300.825
300.003
300.009
300.015
300.021
300.027
300.034
300.041
300.048
300.056
300.063
300.071
300.079
300.088
300.096
300.105
300.114
300.123
300.133
300.142
300.152
300.162
300.173
300.183
300.194
300.204
300.215
300.226
300.237
300.249
300.26
300.271
300.283
300.295
300.306
300.318
300.33
300.342
300.354
300.366
300.378
300.39
300.402
300.414
300.426
300.438
300.45
300.462
300.474
300.485
300.497
300.509
300.521
300.532
300.544
300.555
300.566
300.578
300.589
300.6
300.611
300.622
300.633
300.643
300.654
300.664
300.675
300.685
300.695
300.705
300.715
300.725
300.734
300.744
300.753
300.762
300.772
300.781
300.789
300.798
300.807
300.815
300.003
300.009
300.015
300.021
300.027
300.034
300.041
300.048
300.055
300.063
300.071
300.079
300.087
300.096
300.105
300.114
300.123
300.132
300.142
300.152
300.162
300.172
300.182
300.193
300.203
300.214
300.225
300.236
300.248
300.259
300.27
300.282
300.293
300.305
300.317
300.329
300.34
300.352
300.364
300.376
300.388
300.4
300.412
300.424
300.436
300.448
300.459
300.471
300.483
300.495
300.506
300.518
300.529
300.541
300.552
300.564
300.575
300.586
300.597
300.608
300.619
300.629
300.64
300.65
300.661
300.671
300.681
300.691
300.701
300.711
300.721
300.73
300.74
300.749
300.758
300.767
300.776
300.785
300.794
300.802
300.811
303.027
303.156
303.234
303.306
303.37
303.421
303.457
303.496
303.536
303.573
303.605
303.639
303.674
303.708
303.742
303.775
303.806
303.834
303.863
303.893
303.922
303.952
303.982
304.011
304.04
304.069
304.096
304.125
304.152
304.179
304.207
304.234
304.26
304.286
304.312
304.338
304.364
304.389
304.414
304.439
304.464
304.488
304.513
304.541
304.567
304.592
304.616
304.641
304.667
304.693
304.717
304.74
304.764
304.789
304.814
304.84
304.866
304.892
304.918
304.942
304.962
304.985
305.009
305.034
305.058
305.083
305.107
305.132
305.157
305.181
305.205
305.228
305.252
305.275
305.298
305.322
305.345
305.368
305.39
305.415
305.443
305.468
305.492
305.514
305.536
305.556
305.58
305.607
305.631
305.652
305.672
305.696
305.722
305.743
305.768
305.794
305.818
305.839
305.864
305.887
305.907
305.931
305.951
305.973
305.998
306.024
306.046
306.065
306.087
306.105
306.127
306.15
306.174
306.198
306.219
306.236
306.256
306.278
306.3
306.319
306.333
306.351
306.37
306.389
306.407
306.419
306.434
306.449
306.465
306.479
306.492
306.504
306.515
306.524
306.533
306.539
306.545
306.548
306.551
306.551
306.55
306.546
306.541
306.534
306.524
306.512
306.497
306.479
306.458
306.432
306.399
306.365
306.329
306.288
306.241
306.187
306.129
306.029
305.938
305.823
305.674
302.926
303.04
303.128
303.204
303.269
303.324
303.37
303.414
303.456
303.495
303.532
303.568
303.604
303.639
303.674
303.707
303.74
303.77
303.801
303.831
303.861
303.892
303.922
303.951
303.981
304.01
304.039
304.067
304.095
304.123
304.15
304.178
304.204
304.231
304.258
304.284
304.31
304.336
304.361
304.387
304.412
304.437
304.463
304.489
304.516
304.541
304.566
304.591
304.617
304.643
304.667
304.691
304.716
304.741
304.766
304.792
304.818
304.844
304.869
304.893
304.916
304.939
304.963
304.988
305.012
305.037
305.062
305.087
305.111
305.136
305.16
305.184
305.207
305.231
305.255
305.278
305.302
305.325
305.349
305.373
305.4
305.425
305.449
305.472
305.494
305.516
305.54
305.565
305.589
305.612
305.633
305.656
305.682
305.705
305.729
305.754
305.779
305.801
305.825
305.848
305.87
305.893
305.914
305.937
305.961
305.986
306.009
306.029
306.051
306.07
306.092
306.115
306.139
306.162
306.184
306.202
306.222
306.244
306.265
306.285
306.301
306.319
306.338
306.356
306.374
306.388
306.403
306.418
306.433
306.448
306.461
306.473
306.484
306.494
306.502
306.509
306.515
306.518
306.521
306.521
306.52
306.517
306.512
306.504
306.495
306.482
306.467
306.449
306.428
306.401
306.369
306.335
306.298
306.256
306.208
306.153
306.089
305.993
305.897
305.776
305.613
302.844
302.943
303.029
303.105
303.171
303.23
303.281
303.329
303.373
303.415
303.455
303.493
303.53
303.567
303.602
303.637
303.67
303.702
303.734
303.765
303.797
303.827
303.858
303.888
303.918
303.948
303.977
304.006
304.034
304.063
304.091
304.118
304.146
304.173
304.2
304.226
304.253
304.279
304.305
304.331
304.357
304.382
304.409
304.435