/*--------------------------------*- C++ -*----------------------------------*\
| =========                 |                                                 |
| \\      /  F ield         | OpenFOAM: The Open Source CFD Toolbox           |
|  \\    /   O peration     | Version:  2106                                  |
|   \\  /    A nd           | Website:  www.openfoam.com                      |
|    \\/     M anipulation  |                                                 |
\*---------------------------------------------------------------------------*/
FoamFile
{
    version     2.0;
    format      ascii;
    arch        "LSB;label=32;scalar=64";
    class       volVectorField;
    location    "7";
    object      U;
}
// * * * * * * * * * * * * * * * * * * * * * * * * * * * * * * * * * * * * * //

dimensions      [0 1 -1 0 0 0 0];

internalField   nonuniform List<vector> 
12013
(
(0.100037 -1.04322e-05 0)
(0.100191 -1.92927e-05 0)
(0.100439 -2.75198e-05 0)
(0.100759 -3.51167e-05 0)
(0.101147 -4.22646e-05 0)
(0.101594 -4.9065e-05 0)
(0.102096 -5.55828e-05 0)
(0.102648 -6.18696e-05 0)
(0.103246 -6.7965e-05 0)
(0.103886 -7.38996e-05 0)
(0.104565 -7.96974e-05 0)
(0.10528 -8.53786e-05 0)
(0.106028 -9.0959e-05 0)
(0.106808 -9.64513e-05 0)
(0.107616 -0.000101866 0)
(0.108452 -0.000107211 0)
(0.109312 -0.000112494 0)
(0.110196 -0.000117719 0)
(0.111101 -0.00012289 0)
(0.112026 -0.000128009 0)
(0.11297 -0.000133078 0)
(0.113931 -0.000138097 0)
(0.114907 -0.000143067 0)
(0.115898 -0.000147985 0)
(0.116902 -0.000152851 0)
(0.117917 -0.00015766 0)
(0.118944 -0.000162411 0)
(0.119979 -0.0001671 0)
(0.121023 -0.00017172 0)
(0.122074 -0.000176268 0)
(0.123131 -0.000180738 0)
(0.124193 -0.000185122 0)
(0.125259 -0.000189413 0)
(0.126327 -0.000193604 0)
(0.127398 -0.000197685 0)
(0.128468 -0.000201646 0)
(0.129539 -0.000205475 0)
(0.130607 -0.000209162 0)
(0.131673 -0.000212693 0)
(0.132735 -0.000216053 0)
(0.133793 -0.000219225 0)
(0.134844 -0.000222191 0)
(0.135889 -0.000224933 0)
(0.136925 -0.000227426 0)
(0.137952 -0.000229647 0)
(0.138967 -0.000231566 0)
(0.139971 -0.000233153 0)
(0.140962 -0.000234371 0)
(0.141938 -0.000235179 0)
(0.142898 -0.000235533 0)
(0.14384 -0.000235377 0)
(0.144762 -0.000234651 0)
(0.145663 -0.000233284 0)
(0.146541 -0.000231194 0)
(0.147393 -0.000228285 0)
(0.148217 -0.000224442 0)
(0.149011 -0.000219532 0)
(0.149772 -0.000213393 0)
(0.150496 -0.000205833 0)
(0.151179 -0.000196618 0)
(0.151818 -0.000185462 0)
(0.152407 -0.000172011 0)
(0.15294 -0.000155825 0)
(0.153411 -0.000136348 0)
(0.153811 -0.00011287 0)
(0.15413 -8.44736e-05 0)
(0.154356 -4.99516e-05 0)
(0.154474 -7.69339e-06 0)
(0.154465 4.45061e-05 0)
(0.154304 0.000109782 0)
(0.153959 0.00019261 0)
(0.153387 0.000299574 0)
(0.152527 0.000440667 0)
(0.151297 0.000631553 0)
(0.149573 0.00089764 0)
(0.147172 0.0012816 0)
(0.14381 0.00185779 0)
(0.139014 0.00276371 0)
(0.131994 0.00429638 0)
(0.12166 0.00732949 0)
(0.109793 0.0159726 0)
(0.100034 -3.18519e-05 0)
(0.100187 -5.91504e-05 0)
(0.100434 -8.44166e-05 0)
(0.100754 -0.000107732 0)
(0.10114 -0.00012967 0)
(0.101587 -0.000150538 0)
(0.102088 -0.000170538 0)
(0.102639 -0.000189827 0)
(0.103236 -0.000208528 0)
(0.103875 -0.000226734 0)
(0.104552 -0.000244519 0)
(0.105266 -0.000261946 0)
(0.106014 -0.000279062 0)
(0.106792 -0.000295907 0)
(0.107599 -0.000312513 0)
(0.108434 -0.000328905 0)
(0.109293 -0.000345104 0)
(0.110175 -0.000361125 0)
(0.111079 -0.000376979 0)
(0.112003 -0.000392674 0)
(0.112945 -0.000408214 0)
(0.113905 -0.000423602 0)
(0.114879 -0.000438835 0)
(0.115869 -0.00045391 0)
(0.116871 -0.000468822 0)
(0.117885 -0.000483563 0)
(0.118909 -0.000498122 0)
(0.119943 -0.000512488 0)
(0.120985 -0.000526646 0)
(0.122035 -0.00054058 0)
(0.12309 -0.000554273 0)
(0.12415 -0.000567703 0)
(0.125213 -0.000580848 0)
(0.12628 -0.000593683 0)
(0.127348 -0.00060618 0)
(0.128416 -0.000618308 0)
(0.129484 -0.000630035 0)
(0.130551 -0.000641322 0)
(0.131614 -0.00065213 0)
(0.132674 -0.000662412 0)
(0.133729 -0.000672119 0)
(0.134778 -0.000681197 0)
(0.13582 -0.000689582 0)
(0.136853 -0.000697208 0)
(0.137877 -0.000703997 0)
(0.138891 -0.000709863 0)
(0.139892 -0.00071471 0)
(0.14088 -0.000718427 0)
(0.141853 -0.000720892 0)
(0.14281 -0.000721961 0)
(0.143749 -0.000721473 0)
(0.144669 -0.000719241 0)
(0.145567 -0.00071505 0)
(0.146442 -0.000708647 0)
(0.147292 -0.00069974 0)
(0.148114 -0.000687983 0)
(0.148906 -0.000672967 0)
(0.149665 -0.000654204 0)
(0.150387 -0.000631109 0)
(0.151069 -0.000602972 0)
(0.151707 -0.000568926 0)
(0.152296 -0.000527905 0)
(0.15283 -0.000478578 0)
(0.153303 -0.000419273 0)
(0.153707 -0.000347857 0)
(0.154032 -0.000261582 0)
(0.154267 -0.00015685 0)
(0.154398 -2.88804e-05 0)
(0.154408 0.000128804 0)
(0.154274 0.000325264 0)
(0.153968 0.000573337 0)
(0.153454 0.000891647 0)
(0.152684 0.00130791 0)
(0.151591 0.00186454 0)
(0.150088 0.00262808 0)
(0.148055 0.00370555 0)
(0.14533 0.00527167 0)
(0.14169 0.00761416 0)
(0.136864 0.0112106 0)
(0.130865 0.0167645 0)
(0.125978 0.0246502 0)
(0.100032 -5.41361e-05 0)
(0.100182 -0.000101457 0)
(0.100427 -0.000144973 0)
(0.100745 -0.000185118 0)
(0.101129 -0.000222881 0)
(0.101574 -0.000258797 0)
(0.102073 -0.000293212 0)
(0.102622 -0.000326402 0)
(0.103216 -0.000358576 0)
(0.103853 -0.000389896 0)
(0.104529 -0.000420491 0)
(0.105241 -0.000450466 0)
(0.105986 -0.000479904 0)
(0.106762 -0.000508875 0)
(0.107567 -0.000537432 0)
(0.108398 -0.00056562 0)
(0.109255 -0.000593473 0)
(0.110135 -0.000621018 0)
(0.111036 -0.000648275 0)
(0.111957 -0.000675255 0)
(0.112896 -0.000701968 0)
(0.113852 -0.000728415 0)
(0.114824 -0.000754596 0)
(0.11581 -0.000780503 0)
(0.116809 -0.000806126 0)
(0.11782 -0.000831453 0)
(0.118841 -0.000856466 0)
(0.119871 -0.000881144 0)
(0.120909 -0.000905462 0)
(0.121955 -0.000929393 0)
(0.123006 -0.000952906 0)
(0.124062 -0.000975965 0)
(0.125121 -0.00099853 0)
(0.126184 -0.00102056 0)
(0.127247 -0.00104201 0)
(0.128311 -0.00106282 0)
(0.129375 -0.00108293 0)
(0.130436 -0.00110229 0)
(0.131495 -0.00112082 0)
(0.13255 -0.00113845 0)
(0.1336 -0.00115508 0)
(0.134644 -0.00117063 0)
(0.135681 -0.00118499 0)
(0.136709 -0.00119804 0)
(0.137728 -0.00120965 0)
(0.138736 -0.00121967 0)
(0.139731 -0.00122794 0)
(0.140714 -0.00123427 0)
(0.141681 -0.00123845 0)
(0.142633 -0.00124024 0)
(0.143566 -0.00123936 0)
(0.14448 -0.00123549 0)
(0.145373 -0.00122826 0)
(0.146243 -0.00121726 0)
(0.147088 -0.00120198 0)
(0.147905 -0.00118184 0)
(0.148692 -0.00115614 0)
(0.149446 -0.00112407 0)
(0.150165 -0.00108465 0)
(0.150844 -0.00103668 0)
(0.15148 -0.000978716 0)
(0.152068 -0.000908988 0)
(0.152603 -0.000825293 0)
(0.153079 -0.000724876 0)
(0.153488 -0.000604251 0)
(0.153823 -0.000458951 0)
(0.154074 -0.000283184 0)
(0.154227 -6.93401e-05 0)
(0.154269 0.000192724 0)
(0.154181 0.000516883 0)
(0.153943 0.000922402 0)
(0.153527 0.00143644 0)
(0.152902 0.00209795 0)
(0.152029 0.0029638 0)
(0.150863 0.00411809 0)
(0.149361 0.00568587 0)
(0.14749 0.00785129 0)
(0.145253 0.010876 0)
(0.142764 0.0151021 0)
(0.140448 0.0208243 0)
(0.139565 0.0275163 0)
(0.100029 -7.70905e-05 0)
(0.100177 -0.000146091 0)
(0.100418 -0.000209117 0)
(0.100733 -0.000267291 0)
(0.101114 -0.000321992 0)
(0.101555 -0.000373999 0)
(0.102051 -0.000423824 0)
(0.102597 -0.000471866 0)
(0.103189 -0.00051843 0)
(0.103822 -0.000563753 0)
(0.104494 -0.000608021 0)
(0.105202 -0.000651387 0)
(0.105944 -0.000693973 0)
(0.106716 -0.000735877 0)
(0.107518 -0.000777178 0)
(0.108345 -0.000817942 0)
(0.109198 -0.000858216 0)
(0.110073 -0.000898041 0)
(0.11097 -0.000937444 0)
(0.111887 -0.000976444 0)
(0.112822 -0.00101505 0)
(0.113773 -0.00105327 0)
(0.11474 -0.0010911 0)
(0.115721 -0.00112853 0)
(0.116715 -0.00116554 0)
(0.11772 -0.00120212 0)
(0.118736 -0.00123824 0)
(0.119761 -0.00127388 0)
(0.120794 -0.00130898 0)
(0.121833 -0.00134352 0)
(0.122878 -0.00137745 0)
(0.123928 -0.00141072 0)
(0.124981 -0.00144327 0)
(0.126037 -0.00147504 0)
(0.127094 -0.00150596 0)
(0.128151 -0.00153595 0)
(0.129208 -0.00156493 0)
(0.130262 -0.00159281 0)
(0.131314 -0.00161949 0)
(0.132362 -0.00164486 0)
(0.133404 -0.00166878 0)
(0.13444 -0.00169113 0)
(0.135469 -0.00171176 0)
(0.13649 -0.00173049 0)
(0.1375 -0.00174714 0)
(0.1385 -0.00176149 0)
(0.139488 -0.00177332 0)
(0.140462 -0.00178234 0)
(0.141421 -0.00178826 0)
(0.142364 -0.00179073 0)
(0.143289 -0.00178937 0)
(0.144195 -0.0017837 0)
(0.14508 -0.00177323 0)
(0.145942 -0.00175733 0)
(0.146779 -0.00173532 0)
(0.147589 -0.00170636 0)
(0.148369 -0.00166949 0)
(0.149117 -0.00162355 0)
(0.149831 -0.00156718 0)
(0.150506 -0.00149871 0)
(0.151139 -0.00141617 0)
(0.151727 -0.0013171 0)
(0.152264 -0.00119851 0)
(0.152745 -0.00105667 0)
(0.153164 -0.000886896 0)
(0.153514 -0.000683276 0)
(0.153787 -0.000438228 0)
(0.153974 -0.000141953 0)
(0.154063 0.000218306 0)
(0.154043 0.000659486 0)
(0.153899 0.00120442 0)
(0.153617 0.00188407 0)
(0.153183 0.00274072 0)
(0.152584 0.00383239 0)
(0.151816 0.00523842 0)
(0.150893 0.00706556 0)
(0.149861 0.0094512 0)
(0.148834 0.0125542 0)
(0.148032 0.0165102 0)
(0.147837 0.021279 0)
(0.148802 0.0262087 0)
(0.100026 -0.00010072 0)
(0.100171 -0.000192966 0)
(0.100408 -0.000276804 0)
(0.100718 -0.000354272 0)
(0.101095 -0.000427088 0)
(0.101532 -0.000496292 0)
(0.102024 -0.000562576 0)
(0.102565 -0.000626475 0)
(0.103152 -0.000688395 0)
(0.103781 -0.000748654 0)
(0.104449 -0.000807502 0)
(0.105152 -0.00086514 0)
(0.105889 -0.000921733 0)
(0.106656 -0.000977411 0)
(0.107452 -0.00103228 0)
(0.108274 -0.00108643 0)
(0.109122 -0.00113992 0)
(0.109991 -0.0011928 0)
(0.110882 -0.00124512 0)
(0.111793 -0.00129689 0)
(0.112722 -0.00134813 0)
(0.113667 -0.00139885 0)
(0.114627 -0.00144905 0)
(0.115602 -0.0014987 0)
(0.116588 -0.00154779 0)
(0.117587 -0.0015963 0)
(0.118595 -0.00164419 0)
(0.119612 -0.00169142 0)
(0.120637 -0.00173794 0)
(0.121669 -0.0017837 0)
(0.122706 -0.00182864 0)
(0.123747 -0.00187269 0)
(0.124792 -0.00191577 0)
(0.125839 -0.00195781 0)
(0.126887 -0.00199871 0)
(0.127935 -0.00203837 0)
(0.128983 -0.00207667 0)
(0.130028 -0.00211351 0)
(0.13107 -0.00214873 0)
(0.132107 -0.00218221 0)
(0.13314 -0.00221376 0)
(0.134166 -0.00224322 0)
(0.135184 -0.00227038 0)
(0.136194 -0.00229501 0)
(0.137194 -0.00231688 0)
(0.138183 -0.00233571 0)
(0.13916 -0.00235117 0)
(0.140123 -0.00236294 0)
(0.141072 -0.00237059 0)
(0.142004 -0.0023737 0)
(0.142919 -0.00237174 0)
(0.143814 -0.00236412 0)
(0.144688 -0.00235019 0)
(0.14554 -0.00232915 0)
(0.146367 -0.0023001 0)
(0.147168 -0.00226199 0)
(0.14794 -0.00221357 0)
(0.148681 -0.0021534 0)
(0.149388 -0.00207974 0)
(0.150059 -0.00199052 0)
(0.15069 -0.00188326 0)
(0.151278 -0.00175493 0)
(0.151819 -0.00160187 0)
(0.152308 -0.00141957 0)
(0.152742 -0.00120245 0)
(0.153113 -0.000943533 0)
(0.153418 -0.000634066 0)
(0.153649 -0.000262971 0)
(0.1538 0.000183789 0)
(0.153864 0.000724095 0)
(0.153837 0.00138119 0)
(0.153714 0.00218509 0)
(0.153496 0.00317444 0)
(0.153192 0.00439845 0)
(0.152823 0.00591842 0)
(0.152433 0.0078073 0)
(0.152101 0.0101438 0)
(0.151955 0.0129939 0)
(0.152186 0.0163649 0)
(0.153043 0.0201085 0)
(0.154746 0.0237511 0)
(0.100023 -0.000125033 0)
(0.100165 -0.000242001 0)
(0.100396 -0.000347981 0)
(0.100702 -0.000446047 0)
(0.101073 -0.000538212 0)
(0.101505 -0.000625777 0)
(0.101991 -0.000709624 0)
(0.102527 -0.000790435 0)
(0.103108 -0.000868726 0)
(0.103731 -0.000944899 0)
(0.104393 -0.00101927 0)
(0.10509 -0.0010921 0)
(0.10582 -0.0011636 0)
(0.106581 -0.00123393 0)
(0.10737 -0.00130322 0)
(0.108186 -0.00137158 0)
(0.109026 -0.00143911 0)
(0.109889 -0.00150585 0)
(0.110772 -0.00157187 0)
(0.111675 -0.00163719 0)
(0.112596 -0.00170182 0)
(0.113533 -0.00176578 0)
(0.114485 -0.00182907 0)
(0.11545 -0.00189165 0)
(0.116428 -0.00195352 0)
(0.117418 -0.00201463 0)
(0.118417 -0.00207495 0)
(0.119424 -0.00213442 0)
(0.120439 -0.00219298 0)
(0.121461 -0.00225057 0)
(0.122488 -0.0023071 0)
(0.123519 -0.00236249 0)
(0.124553 -0.00241665 0)
(0.125589 -0.00246948 0)
(0.126626 -0.00252084 0)
(0.127663 -0.00257063 0)
(0.128698 -0.0026187 0)
(0.129731 -0.00266489 0)
(0.130761 -0.00270904 0)
(0.131787 -0.00275096 0)
(0.132806 -0.00279044 0)
(0.13382 -0.00282727 0)
(0.134825 -0.0028612 0)
(0.135822 -0.00289193 0)
(0.136809 -0.00291918 0)
(0.137785 -0.00294258 0)
(0.138749 -0.00296176 0)
(0.139699 -0.00297629 0)
(0.140634 -0.00298567 0)
(0.141553 -0.00298935 0)
(0.142454 -0.0029867 0)
(0.143337 -0.002977 0)
(0.144199 -0.00295945 0)
(0.145038 -0.00293308 0)
(0.145854 -0.00289681 0)
(0.146645 -0.00284937 0)
(0.147407 -0.00278929 0)
(0.14814 -0.00271484 0)
(0.148841 -0.00262396 0)
(0.149508 -0.00251425 0)
(0.150138 -0.00238283 0)
(0.150727 -0.00222625 0)
(0.151274 -0.00204035 0)
(0.151776 -0.00182012 0)
(0.152228 -0.00155943 0)
(0.152627 -0.0012508 0)
(0.152971 -0.000885035 0)
(0.153256 -0.000450814 0)
(0.15348 6.58007e-05 0)
(0.153642 0.000681584 0)
(0.153744 0.00141743 0)
(0.15379 0.00229884 0)
(0.153793 0.00335641 0)
(0.153771 0.00462575 0)
(0.15376 0.00614634 0)
(0.15381 0.00795804 0)
(0.154 0.010093 0)
(0.154433 0.0125595 0)
(0.155241 0.0153131 0)
(0.15656 0.0182113 0)
(0.158466 0.0209611 0)
(0.10002 -0.00015004 0)
(0.100158 -0.00029313 0)
(0.100385 -0.000422595 0)
(0.100684 -0.000542581 0)
(0.101049 -0.000655372 0)
(0.101474 -0.00076251 0)
(0.101954 -0.000865076 0)
(0.102483 -0.000963902 0)
(0.103057 -0.00105962 0)
(0.103673 -0.00115273 0)
(0.104327 -0.00124362 0)
(0.105017 -0.0013326 0)
(0.105739 -0.00141992 0)
(0.106492 -0.0015058 0)
(0.107273 -0.0015904 0)
(0.10808 -0.00167385 0)
(0.108911 -0.00175625 0)
(0.109765 -0.00183768 0)
(0.110639 -0.0019182 0)
(0.111533 -0.00199785 0)
(0.112444 -0.00207665 0)
(0.113371 -0.0021546 0)
(0.114313 -0.00223171 0)
(0.115268 -0.00230794 0)
(0.116235 -0.00238328 0)
(0.117213 -0.00245768 0)
(0.118201 -0.00253109 0)
(0.119197 -0.00260343 0)
(0.1202 -0.00267465 0)
(0.12121 -0.00274466 0)
(0.122224 -0.00281336 0)
(0.123242 -0.00288065 0)
(0.124263 -0.0029464 0)
(0.125286 -0.00301051 0)
(0.12631 -0.00307281 0)
(0.127333 -0.00313317 0)
(0.128354 -0.0031914 0)
(0.129373 -0.00324733 0)
(0.130388 -0.00330074 0)
(0.131399 -0.00335142 0)
(0.132404 -0.00339912 0)
(0.133402 -0.00344356 0)
(0.134393 -0.00348445 0)
(0.135374 -0.00352145 0)
(0.136346 -0.00355419 0)
(0.137306 -0.00358227 0)
(0.138254 -0.00360522 0)
(0.139188 -0.00362253 0)
(0.140108 -0.00363362 0)
(0.141012 -0.00363783 0)
(0.141898 -0.00363444 0)
(0.142766 -0.00362259 0)
(0.143614 -0.00360135 0)
(0.14444 -0.0035696 0)
(0.145243 -0.00352611 0)
(0.146022 -0.00346941 0)
(0.146775 -0.00339784 0)
(0.147499 -0.00330944 0)
(0.148194 -0.00320195 0)
(0.148857 -0.00307268 0)
(0.149486 -0.00291852 0)
(0.15008 -0.00273574 0)
(0.150636 -0.00251997 0)
(0.151153 -0.00226597 0)
(0.151628 -0.00196753 0)
(0.152061 -0.00161722 0)
(0.15245 -0.00120617 0)
(0.152796 -0.000723811 0)
(0.1531 -0.000157632 0)
(0.153365 0.000506863 0)
(0.153598 0.00128616 0)
(0.15381 0.00219937 0)
(0.154017 0.00326747 0)
(0.154244 0.00451218 0)
(0.154525 0.00595382 0)
(0.154908 0.00760738 0)
(0.155454 0.00947596 0)
(0.156236 0.0115407 0)
(0.157332 0.0137466 0)
(0.158807 0.0159859 0)
(0.160677 0.0180887 0)
(0.100017 -0.000175765 0)
(0.100152 -0.000346306 0)
(0.100373 -0.000500599 0)
(0.100665 -0.000643833 0)
(0.101023 -0.000778554 0)
(0.101441 -0.000906514 0)
(0.101913 -0.00102899 0)
(0.102433 -0.00114698 0)
(0.102999 -0.00126123 0)
(0.103607 -0.00137233 0)
(0.104252 -0.00148075 0)
(0.104933 -0.00158687 0)
(0.105646 -0.00169099 0)
(0.106389 -0.00179335 0)
(0.107161 -0.00189417 0)
(0.107958 -0.00199358 0)
(0.108778 -0.00209172 0)
(0.109621 -0.00218867 0)
(0.110485 -0.00228452 0)
(0.111367 -0.0023793 0)
(0.112266 -0.00247304 0)
(0.113182 -0.00256574 0)
(0.114111 -0.00265741 0)
(0.115054 -0.00274802 0)
(0.116009 -0.00283753 0)
(0.116974 -0.00292588 0)
(0.117948 -0.00301303 0)
(0.11893 -0.00309889 0)
(0.11992 -0.00318337 0)
(0.120915 -0.00326638 0)
(0.121915 -0.0033478 0)
(0.122918 -0.00342751 0)
(0.123924 -0.00350536 0)
(0.124931 -0.00358122 0)
(0.125939 -0.00365491 0)
(0.126946 -0.00372624 0)
(0.127951 -0.00379502 0)
(0.128953 -0.00386103 0)
(0.129952 -0.00392402 0)
(0.130945 -0.00398374 0)
(0.131933 -0.00403989 0)
(0.132914 -0.00409216 0)
(0.133887 -0.00414019 0)
(0.13485 -0.0041836 0)
(0.135804 -0.00422195 0)
(0.136747 -0.00425478 0)
(0.137677 -0.00428155 0)
(0.138594 -0.00430167 0)
(0.139496 -0.00431449 0)
(0.140383 -0.00431925 0)
(0.141252 -0.00431512 0)
(0.142104 -0.00430115 0)
(0.142936 -0.00427629 0)
(0.143748 -0.0042393 0)
(0.144538 -0.00418881 0)
(0.145304 -0.00412322 0)
(0.146046 -0.00404073 0)
(0.146762 -0.00393923 0)
(0.147451 -0.00381632 0)
(0.148112 -0.00366919 0)
(0.148742 -0.00349461 0)
(0.149341 -0.00328883 0)
(0.149909 -0.00304747 0)
(0.150444 -0.00276546 0)
(0.150946 -0.00243688 0)
(0.151415 -0.00205492 0)
(0.151853 -0.00161169 0)
(0.152263 -0.00109816 0)
(0.152648 -0.000504101 0)
(0.153015 0.000181949 0)
(0.153372 0.000971392 0)
(0.153734 0.00187658 0)
(0.154117 0.00290954 0)
(0.154545 0.00408058 0)
(0.155049 0.00539615 0)
(0.155665 0.0068559 0)
(0.156435 0.00844858 0)
(0.157405 0.010147 0)
(0.158617 0.0119027 0)
(0.160097 0.0136419 0)
(0.161841 0.0152686 0)
(0.100014 -0.000202243 0)
(0.100146 -0.0004015 0)
(0.10036 -0.000581957 0)
(0.100645 -0.000749761 0)
(0.100996 -0.000907726 0)
(0.101405 -0.00105778 0)
(0.101868 -0.0012014 0)
(0.10238 -0.00133972 0)
(0.102936 -0.00147363 0)
(0.103534 -0.00160382 0)
(0.104169 -0.00173083 0)
(0.104839 -0.0018551 0)
(0.105541 -0.001977 0)
(0.106274 -0.00209681 0)
(0.107033 -0.00221476 0)
(0.107819 -0.00233104 0)
(0.108628 -0.0024458 0)
(0.109458 -0.00255913 0)
(0.110309 -0.00267113 0)
(0.111178 -0.00278185 0)
(0.112064 -0.00289131 0)
(0.112966 -0.00299953 0)
(0.113881 -0.0031065 0)
(0.11481 -0.00321219 0)
(0.11575 -0.00331656 0)
(0.116699 -0.00341954 0)
(0.117658 -0.00352107 0)
(0.118625 -0.00362105 0)
(0.119598 -0.00371939 0)
(0.120577 -0.00381596 0)
(0.12156 -0.00391064 0)
(0.122546 -0.00400327 0)
(0.123535 -0.00409371 0)
(0.124524 -0.00418176 0)
(0.125514 -0.00426724 0)
(0.126502 -0.00434994 0)
(0.127489 -0.00442961 0)
(0.128472 -0.00450602 0)
(0.129452 -0.00457888 0)
(0.130426 -0.00464788 0)
(0.131395 -0.00471271 0)
(0.132356 -0.00477298 0)
(0.133309 -0.00482831 0)
(0.134253 -0.00487826 0)
(0.135187 -0.00492233 0)
(0.136109 -0.00495999 0)
(0.13702 -0.00499065 0)
(0.137917 -0.00501365 0)
(0.1388 -0.00502825 0)
(0.139668 -0.00503364 0)
(0.14052 -0.00502889 0)
(0.141354 -0.00501297 0)
(0.142169 -0.00498474 0)
(0.142966 -0.00494287 0)
(0.143741 -0.00488591 0)
(0.144495 -0.00481218 0)
(0.145226 -0.00471978 0)
(0.145934 -0.00460657 0)
(0.146618 -0.0044701 0)
(0.147276 -0.00430759 0)
(0.147909 -0.00411586 0)
(0.148516 -0.00389133 0)
(0.149096 -0.00362989 0)
(0.149651 -0.00332691 0)
(0.150182 -0.00297719 0)
(0.15069 -0.0025749 0)
(0.151177 -0.00211361 0)
(0.151649 -0.0015863 0)
(0.152111 -0.000985472 0)
(0.15257 -0.000303304 0)
(0.153037 0.000468064 0)
(0.153525 0.00133419 0)
(0.154049 0.00230013 0)
(0.15463 0.00336819 0)
(0.15529 0.00453642 0)
(0.156056 0.00579679 0)
(0.156953 0.00713322 0)
(0.158008 0.00851964 0)
(0.159241 0.00991873 0)
(0.160658 0.0112825 0)
(0.162251 0.0125566 0)
(0.10001 -0.000229513 0)
(0.10014 -0.000458694 0)
(0.100348 -0.000666637 0)
(0.100626 -0.000860322 0)
(0.100967 -0.00104284 0)
(0.101367 -0.00121628 0)
(0.10182 -0.00138228 0)
(0.102322 -0.00154214 0)
(0.102867 -0.00169687 0)
(0.103454 -0.00184725 0)
(0.104078 -0.00199393 0)
(0.104736 -0.0021374 0)
(0.105426 -0.00227808 0)
(0.106146 -0.00241631 0)
(0.106893 -0.00255235 0)
(0.107664 -0.00268641 0)
(0.10846 -0.00281867 0)
(0.109276 -0.00294924 0)
(0.110112 -0.00307823 0)
(0.110967 -0.00320569 0)
(0.111838 -0.00333166 0)
(0.112724 -0.00345616 0)
(0.113623 -0.00357916 0)
(0.114535 -0.00370063 0)
(0.115458 -0.00382054 0)
(0.116391 -0.0039388 0)
(0.117333 -0.00405534 0)
(0.118281 -0.00417004 0)
(0.119236 -0.0042828 0)
(0.120197 -0.00439347 0)
(0.121161 -0.00450192 0)
(0.122128 -0.00460796 0)
(0.123097 -0.00471141 0)
(0.124066 -0.00481208 0)
(0.125036 -0.00490974 0)
(0.126004 -0.00500414 0)
(0.126969 -0.00509503 0)
(0.127932 -0.00518212 0)
(0.12889 -0.0052651 0)
(0.129843 -0.00534362 0)
(0.13079 -0.0054173 0)
(0.131729 -0.00548576 0)
(0.132661 -0.00554853 0)
(0.133583 -0.00560513 0)
(0.134495 -0.00565503 0)
(0.135396 -0.00569763 0)
(0.136285 -0.00573228 0)
(0.137161 -0.00575828 0)
(0.138024 -0.00577481 0)
(0.138871 -0.00578101 0)
(0.139703 -0.0057759 0)
(0.140519 -0.00575838 0)
(0.141317 -0.00572725 0)
(0.142097 -0.00568116 0)
(0.142857 -0.00561858 0)
(0.143599 -0.00553785 0)
(0.144319 -0.00543706 0)
(0.145019 -0.0053141 0)
(0.145698 -0.00516661 0)
(0.146355 -0.00499195 0)
(0.146991 -0.00478718 0)
(0.147606 -0.00454905 0)
(0.1482 -0.00427396 0)
(0.148776 -0.00395798 0)
(0.149335 -0.00359683 0)
(0.14988 -0.00318595 0)
(0.150414 -0.00272057 0)
(0.150943 -0.00219581 0)
(0.151472 -0.00160689 0)
(0.15201 -0.000949316 0)
(0.152567 -0.000219081 0)
(0.153154 0.00058656 0)
(0.153784 0.00146643 0)
(0.154471 0.0024181 0)
(0.155232 0.00343555 0)
(0.156083 0.00450815 0)
(0.15704 0.00562005 0)
(0.158116 0.00674979 0)
(0.159319 0.00787058 0)
(0.160648 0.00895179 0)
(0.162092 0.00996237 0)
(0.100007 -0.000257611 0)
(0.100134 -0.000517874 0)
(0.100336 -0.000754607 0)
(0.100605 -0.000975466 0)
(0.100938 -0.00118384 0)
(0.101328 -0.00138195 0)
(0.10177 -0.00157158 0)
(0.10226 -0.00175419 0)
(0.102794 -0.0019309 0)
(0.103368 -0.00210262 0)
(0.103979 -0.00227005 0)
(0.104624 -0.00243377 0)
(0.105301 -0.00259425 0)
(0.106006 -0.00275188 0)
(0.106739 -0.00290696 0)
(0.107496 -0.00305972 0)
(0.108275 -0.00321037 0)
(0.109076 -0.00335905 0)
(0.109896 -0.00350586 0)
(0.110734 -0.00365087 0)
(0.111587 -0.00379413 0)
(0.112456 -0.00393564 0)
(0.113338 -0.00407539 0)
(0.114231 -0.00421335 0)
(0.115136 -0.00434945 0)
(0.116049 -0.00448363 0)
(0.116971 -0.00461577 0)
(0.1179 -0.00474577 0)
(0.118835 -0.00487349 0)
(0.119775 -0.00499878 0)
(0.120718 -0.00512146 0)
(0.121663 -0.00524135 0)
(0.12261 -0.00535824 0)
(0.123558 -0.0054719 0)
(0.124505 -0.00558208 0)
(0.12545 -0.00568852 0)
(0.126393 -0.00579091 0)
(0.127333 -0.00588894 0)
(0.128268 -0.00598225 0)
(0.129197 -0.00607048 0)
(0.13012 -0.00615321 0)
(0.131036 -0.00623 0)
(0.131944 -0.00630035 0)
(0.132842 -0.00636375 0)
(0.133731 -0.0064196 0)
(0.134609 -0.00646728 0)
(0.135475 -0.00650609 0)
(0.136329 -0.00653527 0)
(0.137169 -0.00655399 0)
(0.137995 -0.00656133 0)
(0.138806 -0.00655627 0)
(0.139602 -0.00653772 0)
(0.140382 -0.00650443 0)
(0.141145 -0.00645505 0)
(0.141891 -0.00638811 0)
(0.142619 -0.00630194 0)
(0.143329 -0.00619476 0)
(0.144021 -0.00606456 0)
(0.144695 -0.00590919 0)
(0.145351 -0.00572627 0)
(0.14599 -0.00551323 0)
(0.146613 -0.0052673 0)
(0.147221 -0.00498555 0)
(0.147817 -0.00466486 0)
(0.148402 -0.00430204 0)
(0.14898 -0.00389386 0)
(0.149555 -0.00343718 0)
(0.150132 -0.00292913 0)
(0.150717 -0.00236724 0)
(0.151317 -0.00174976 0)
(0.151941 -0.00107577 0)
(0.152599 -0.00034541 0)
(0.1533 0.000439799 0)
(0.154054 0.00127332 0)
(0.154872 0.00214747 0)
(0.155763 0.0030519 0)
(0.156735 0.00397327 0)
(0.157794 0.00489528 0)
(0.158941 0.00579937 0)
(0.160174 0.00666614 0)
(0.161483 0.00747759 0)
(0.100003 -0.000286566 0)
(0.100128 -0.000579028 0)
(0.100324 -0.000845827 0)
(0.100585 -0.00109513 0)
(0.100908 -0.00133065 0)
(0.101287 -0.00155469 0)
(0.101718 -0.0017692 0)
(0.102196 -0.00197577 0)
(0.102717 -0.00217564 0)
(0.103277 -0.00236981 0)
(0.103874 -0.00255909 0)
(0.104505 -0.00274412 0)
(0.105166 -0.00292543 0)
(0.105856 -0.00310344 0)
(0.106572 -0.00327851 0)
(0.107312 -0.0034509 0)
(0.108075 -0.00362083 0)
(0.108858 -0.00378846 0)
(0.10966 -0.00395391 0)
(0.110479 -0.00411727 0)
(0.111314 -0.00427857 0)
(0.112163 -0.00443783 0)
(0.113025 -0.00459504 0)
(0.113899 -0.00475014 0)
(0.114782 -0.00490308 0)
(0.115675 -0.00505377 0)
(0.116575 -0.0052021 0)
(0.117482 -0.00534793 0)
(0.118395 -0.00549112 0)
(0.119311 -0.0056315 0)
(0.120231 -0.00576887 0)
(0.121154 -0.00590302 0)
(0.122077 -0.00603372 0)
(0.123 -0.00616071 0)
(0.123923 -0.00628374 0)
(0.124844 -0.00640248 0)
(0.125762 -0.00651662 0)
(0.126676 -0.00662581 0)
(0.127586 -0.00672967 0)
(0.12849 -0.0068278 0)
(0.129387 -0.00691973 0)
(0.130278 -0.007005 0)
(0.13116 -0.00708309 0)
(0.132033 -0.00715343 0)
(0.132897 -0.00721541 0)
(0.13375 -0.00726836 0)
(0.134591 -0.00731156 0)
(0.135421 -0.00734423 0)
(0.136238 -0.00736551 0)
(0.137042 -0.00737447 0)
(0.137832 -0.0073701 0)
(0.138607 -0.00735129 0)
(0.139368 -0.00731685 0)
(0.140113 -0.00726548 0)
(0.140843 -0.00719575 0)
(0.141558 -0.00710615 0)
(0.142257 -0.00699502 0)
(0.142941 -0.00686058 0)
(0.14361 -0.00670095 0)
(0.144265 -0.00651412 0)
(0.144907 -0.00629798 0)
(0.145537 -0.00605035 0)
(0.146157 -0.005769 0)
(0.146769 -0.00545172 0)
(0.147376 -0.00509637 0)
(0.147982 -0.00470097 0)
(0.14859 -0.00426385 0)
(0.149205 -0.00378374 0)
(0.149832 -0.00325999 0)
(0.150477 -0.00269275 0)
(0.151147 -0.00208314 0)
(0.151849 -0.0014334 0)
(0.15259 -0.000746912 0)
(0.153378 -2.7661e-05 0)
(0.154219 0.000716879 0)
(0.155116 0.00147574 0)
(0.156075 0.00223843 0)
(0.157095 0.0029932 0)
(0.158176 0.0037276 0)
(0.159315 0.00442947 0)
(0.160503 0.00508826 0)
(0.099999 -0.000316396 0)
(0.100121 -0.000642132 0)
(0.100311 -0.000940239 0)
(0.100564 -0.00121924 0)
(0.100877 -0.00148315 0)
(0.101245 -0.00173438 0)
(0.101664 -0.00197499 0)
(0.102128 -0.00220671 0)
(0.102635 -0.0024309 0)
(0.103181 -0.00264866 0)
(0.103763 -0.00286087 0)
(0.104377 -0.00306826 0)
(0.105022 -0.0032714 0)
(0.105695 -0.00347078 0)
(0.106393 -0.00366678 0)
(0.107115 -0.00385969 0)
(0.107859 -0.00404977 0)
(0.108623 -0.0042372 0)
(0.109405 -0.0044221 0)
(0.110204 -0.00460457 0)
(0.111018 -0.00478466 0)
(0.111846 -0.00496237 0)
(0.112686 -0.0051377 0)
(0.113538 -0.00531059 0)
(0.114399 -0.00548097 0)
(0.115268 -0.00564875 0)
(0.116145 -0.0058138 0)
(0.117028 -0.00597597 0)
(0.117916 -0.00613509 0)
(0.118808 -0.00629099 0)
(0.119703 -0.00644344 0)
(0.120599 -0.00659222 0)
(0.121497 -0.00673707 0)
(0.122394 -0.00687771 0)
(0.12329 -0.00701384 0)
(0.124184 -0.00714514 0)
(0.125075 -0.00727126 0)
(0.125963 -0.00739181 0)
(0.126845 -0.0075064 0)
(0.127722 -0.00761458 0)
(0.128592 -0.00771588 0)
(0.129455 -0.0078098 0)
(0.13031 -0.00789579 0)
(0.131157 -0.00797326 0)
(0.131993 -0.00804158 0)
(0.13282 -0.00810007 0)
(0.133636 -0.008148 0)
(0.134441 -0.00818457 0)
(0.135233 -0.00820894 0)
(0.136013 -0.00822018 0)
(0.136781 -0.00821733 0)
(0.137535 -0.00819931 0)
(0.138276 -0.00816502 0)
(0.139004 -0.00811322 0)
(0.139718 -0.00804266 0)
(0.140418 -0.00795195 0)
(0.141106 -0.00783968 0)
(0.141781 -0.00770434 0)
(0.142445 -0.00754438 0)
(0.143097 -0.00735823 0)
(0.14374 -0.00714427 0)
(0.144375 -0.00690095 0)
(0.145004 -0.00662675 0)
(0.145629 -0.0063203 0)
(0.146253 -0.00598041 0)
(0.146878 -0.00560616 0)
(0.14751 -0.00519704 0)
(0.148151 -0.00475299 0)
(0.148806 -0.00427459 0)
(0.14948 -0.00376315 0)
(0.150176 -0.00322083 0)
(0.150901 -0.00265073 0)
(0.151658 -0.00205697 0)
(0.152453 -0.00144458 0)
(0.153289 -0.000819306 0)
(0.154169 -0.000186584 0)
(0.155094 0.000445143 0)
(0.156063 0.00106659 0)
(0.157075 0.00166802 0)
(0.158124 0.00224186 0)
(0.159205 0.00278194 0)
(0.0999947 -0.000347105 0)
(0.100115 -0.00070715 0)
(0.100299 -0.00103776 0)
(0.100543 -0.00134766 0)
(0.100845 -0.00164118 0)
(0.101201 -0.00192082 0)
(0.101607 -0.00218874 0)
(0.102058 -0.00244677 0)
(0.10255 -0.00269642 0)
(0.10308 -0.00293887 0)
(0.103645 -0.00317509 0)
(0.104243 -0.00340586 0)
(0.104869 -0.00363183 0)
(0.105524 -0.00385352 0)
(0.106203 -0.00407136 0)
(0.106905 -0.00428569 0)
(0.107629 -0.00449677 0)
(0.108371 -0.0047048 0)
(0.109132 -0.00490992 0)
(0.109909 -0.00511224 0)
(0.1107 -0.00531181 0)
(0.111505 -0.00550865 0)
(0.112321 -0.00570273 0)
(0.113149 -0.005894 0)
(0.113985 -0.00608239 0)
(0.114829 -0.00626778 0)
(0.11568 -0.00645004 0)
(0.116537 -0.006629 0)
(0.117399 -0.00680449 0)
(0.118264 -0.0069763 0)
(0.119132 -0.00714419 0)
(0.120001 -0.00730792 0)
(0.12087 -0.0074672 0)
(0.121739 -0.00762175 0)
(0.122607 -0.00777123 0)
(0.123472 -0.00791529 0)
(0.124335 -0.00805357 0)
(0.125193 -0.00818567 0)
(0.126046 -0.00831114 0)
(0.126894 -0.00842954 0)
(0.127735 -0.00854038 0)
(0.12857 -0.00864312 0)
(0.129396 -0.00873721 0)
(0.130214 -0.00882205 0)
(0.131023 -0.008897 0)
(0.131822 -0.00896139 0)
(0.132611 -0.00901448 0)
(0.133389 -0.0090555 0)
(0.134156 -0.00908363 0)
(0.134912 -0.00909801 0)
(0.135656 -0.00909771 0)
(0.136388 -0.00908176 0)
(0.137109 -0.00904914 0)
(0.137818 -0.00899878 0)
(0.138515 -0.00892958 0)
(0.139201 -0.00884037 0)
(0.139876 -0.00873 0)
(0.140541 -0.00859728 0)
(0.141197 -0.00844103 0)
(0.141845 -0.00826011 0)
(0.142487 -0.00805343 0)
(0.143123 -0.00782001 0)
(0.143757 -0.00755898 0)
(0.144389 -0.0072697 0)
(0.145023 -0.00695175 0)
(0.145661 -0.00660505 0)
(0.146307 -0.00622989 0)
(0.146962 -0.00582704 0)
(0.147632 -0.0053978 0)
(0.148318 -0.00494404 0)
(0.149025 -0.00446833 0)
(0.149755 -0.00397387 0)
(0.150511 -0.00346456 0)
(0.151295 -0.00294492 0)
(0.15211 -0.00242007 0)
(0.152955 -0.00189546 0)
(0.153833 -0.00137658 0)
(0.154741 -0.000868522 0)
(0.155678 -0.000375849 0)
(0.156641 9.59777e-05 0)
(0.157625 0.000542919 0)
(0.0999901 -0.000378679 0)
(0.100108 -0.000774021 0)
(0.100287 -0.00113826 0)
(0.100521 -0.00148024 0)
(0.100812 -0.00180453 0)
(0.101156 -0.00211374 0)
(0.101549 -0.00241012 0)
(0.101985 -0.00269561 0)
(0.102461 -0.00297182 0)
(0.102974 -0.00324002 0)
(0.103522 -0.00350127 0)
(0.1041 -0.00375642 0)
(0.104708 -0.00400617 0)
(0.105342 -0.0042511 0)
(0.106 -0.00449167 0)
(0.106681 -0.00472825 0)
(0.107383 -0.00496113 0)
(0.108103 -0.00519053 0)
(0.10884 -0.00541661 0)
(0.109593 -0.00563948 0)
(0.11036 -0.00585919 0)
(0.111139 -0.00607577 0)
(0.11193 -0.00628918 0)
(0.112731 -0.00649939 0)
(0.113541 -0.00670629 0)
(0.114358 -0.00690976 0)
(0.115182 -0.00710967 0)
(0.11601 -0.00730583 0)
(0.116843 -0.00749804 0)
(0.11768 -0.00768609 0)
(0.118518 -0.00786973 0)
(0.119358 -0.00804867 0)
(0.120197 -0.00822264 0)
(0.121036 -0.0083913 0)
(0.121873 -0.00855432 0)
(0.122708 -0.00871133 0)