/*--------------------------------*- C++ -*----------------------------------*\
| =========                 |                                                 |
| \\      /  F ield         | OpenFOAM: The Open Source CFD Toolbox           |
|  \\    /   O peration     | Version:  2106                                  |
|   \\  /    A nd           | Website:  www.openfoam.com                      |
|    \\/     M anipulation  |                                                 |
\*---------------------------------------------------------------------------*/
FoamFile
{
    version     2.0;
    format      ascii;
    arch        "LSB;label=32;scalar=64";
    class       surfaceScalarField;
    location    "1.8";
    object      phi;
}
// * * * * * * * * * * * * * * * * * * * * * * * * * * * * * * * * * * * * * //

dimensions      [1 0 -1 0 0 0 0];

oriented        oriented;

internalField   nonuniform List<scalar> 
23692
(
9.31216e-05
-4.20795e-08
9.31975e-05
-7.57427e-08
9.33019e-05
-1.04177e-07
9.34296e-05
-1.27434e-07
9.35765e-05
-1.46468e-07
9.37388e-05
-1.61825e-07
9.39131e-05
-1.73819e-07
9.40965e-05
-1.82697e-07
9.42859e-05
-1.8869e-07
9.44788e-05
-1.92086e-07
9.46729e-05
-1.93262e-07
9.48666e-05
-1.92689e-07
9.50585e-05
-1.90926e-07
9.52482e-05
-1.88563e-07
9.54356e-05
-1.86176e-07
9.56212e-05
-1.84267e-07
9.58058e-05
-1.83239e-07
9.59906e-05
-1.83356e-07
9.61769e-05
-1.84752e-07
9.63659e-05
-1.8744e-07
9.65589e-05
-1.91339e-07
9.6757e-05
-1.96294e-07
9.69609e-05
-2.0212e-07
9.71714e-05
-2.08606e-07
9.73889e-05
-2.15557e-07
9.76137e-05
-2.22785e-07
9.78459e-05
-2.30135e-07
9.80854e-05
-2.3747e-07
9.83323e-05
-2.44684e-07
9.85862e-05
-2.5169e-07
9.88469e-05
-2.58418e-07
9.9114e-05
-2.64815e-07
9.93872e-05
-2.70838e-07
9.9666e-05
-2.76446e-07
9.995e-05
-2.81608e-07
0.000100239
-2.86292e-07
0.000100532
-2.90466e-07
0.000100828
-2.94098e-07
0.000101128
-2.97155e-07
0.00010143
-2.99603e-07
0.000101734
-3.01405e-07
0.000102039
-3.0252e-07
0.000102345
-3.02904e-07
0.00010265
-3.02509e-07
0.000102954
-3.01285e-07
0.000103255
-2.99173e-07
0.000103554
-2.96111e-07
0.000103849
-2.92027e-07
0.000104138
-2.86843e-07
0.000104421
-2.80472e-07
0.000104697
-2.72811e-07
0.000104963
-2.63746e-07
0.000105219
-2.53146e-07
0.000105462
-2.40857e-07
0.000105691
-2.26705e-07
0.000105904
-2.10481e-07
0.000106099
-1.9194e-07
0.000106272
-1.70794e-07
0.000106421
-1.46696e-07
0.000106543
-1.19228e-07
0.000106633
-8.78841e-08
0.000106688
-5.20429e-08
0.000106701
-1.09362e-08
0.000106667
3.64179e-08
0.000106578
9.12774e-08
0.000106425
1.55256e-07
0.000106197
2.30453e-07
0.00010588
3.19663e-07
0.000105455
4.26661e-07
0.000104901
5.56655e-07
0.000104186
7.16977e-07
0.00010327
9.18187e-07
0.000102097
1.17584e-06
0.000100585
1.51343e-06
9.86201e-05
1.96727e-06
9.60274e-05
2.59472e-06
9.25418e-05
3.48774e-06
8.77472e-05
4.7966e-06
8.0965e-05
6.78421e-06
7.10066e-05
9.96041e-06
1.57086e-05
5.52999e-05
9.96434e-05
-8.61959e-08
9.97243e-05
-1.56468e-07
9.98357e-05
-2.15434e-07
9.99722e-05
-2.63561e-07
0.000100129
-3.02965e-07
0.000100303
-3.34752e-07
0.000100489
-3.59576e-07
0.000100685
-3.77947e-07
0.000100887
-3.90351e-07
0.000101093
-3.97372e-07
0.000101301
-3.99789e-07
0.000101508
-3.98589e-07
0.000101713
-3.94912e-07
0.000101916
-3.89986e-07
0.000102116
-3.84999e-07
0.000102314
-3.81004e-07
0.000102511
-3.78818e-07
0.000102708
-3.78999e-07
0.000102907
-3.81827e-07
0.000103108
-3.87327e-07
0.000103314
-3.95328e-07
0.000103525
-4.0552e-07
0.000103742
-4.17507e-07
0.000103967
-4.3087e-07
0.000104198
-4.45187e-07
0.000104438
-4.60085e-07
0.000104685
-4.7523e-07
0.00010494
-4.90346e-07
0.000105203
-5.05209e-07
0.000105473
-5.1964e-07
0.000105751
-5.33498e-07
0.000106035
-5.46671e-07
0.000106326
-5.59065e-07
0.000106623
-5.70602e-07
0.000106925
-5.81213e-07
0.000107232
-5.90832e-07
0.000107544
-5.99396e-07
0.000107859
-6.06841e-07
0.000108178
-6.13094e-07
0.000108499
-6.18087e-07
0.000108822
-6.21741e-07
0.000109146
-6.23973e-07
0.000109471
-6.24694e-07
0.000109795
-6.23808e-07
0.000110118
-6.21204e-07
0.000110438
-6.16767e-07
0.000110755
-6.10367e-07
0.000111068
-6.01859e-07
0.000111375
-5.91081e-07
0.000111675
-5.77852e-07
0.000111967
-5.61965e-07
0.000112249
-5.43187e-07
0.00011252
-5.21247e-07
0.000112777
-4.95837e-07
0.00011302
-4.66594e-07
0.000113245
-4.33098e-07
0.000113451
-3.94853e-07
0.000113634
-3.51272e-07
0.000113792
-3.01652e-07
0.00011392
-2.45153e-07
0.000114016
-1.80752e-07
0.000114074
-1.07203e-07
0.000114088
-2.29669e-08
0.000114053
7.39069e-08
0.000113961
1.85899e-07
0.000113803
3.16174e-07
0.000113567
4.68831e-07
0.00011324
6.49254e-07
0.000112804
8.64648e-07
0.000112238
1.1248e-06
0.000111514
1.44324e-06
0.000110596
1.83903e-06
0.000109435
2.33944e-06
0.000107966
2.98415e-06
0.000106104
3.83159e-06
0.000103733
4.96812e-06
0.000100703
6.51959e-06
9.68395e-05
8.66271e-06
9.19927e-05
1.16331e-05
8.62961e-05
1.56592e-05
2.03606e-05
8.16462e-05
0.000106622
-1.32214e-07
0.000106708
-2.42252e-07
0.000106826
-3.33833e-07
0.000106972
-4.08633e-07
0.000107139
-4.69853e-07
0.000107324
-5.19223e-07
0.000107523
-5.57772e-07
0.000107732
-5.86299e-07
0.000107948
-6.05551e-07
0.000108168
-6.16447e-07
0.000108389
-6.20183e-07
0.00010861
-6.18281e-07
0.000108829
-6.12522e-07
0.000109045
-6.04804e-07
0.000109258
-5.96973e-07
0.00010947
-5.90652e-07
0.000109679
-5.87129e-07
0.000109889
-5.87262e-07
0.000110101
-5.91488e-07
0.000110315
-5.99855e-07
0.000110534
-6.121e-07
0.000110758
-6.27743e-07
0.000110989
-6.46175e-07
0.000111227
-6.66736e-07
0.000111473
-6.88786e-07
0.000111727
-7.11734e-07
0.000111989
-7.35068e-07
0.000112259
-7.58359e-07
0.000112538
-7.81255e-07
0.000112824
-8.0348e-07
0.000113118
-8.24813e-07
0.000113419
-8.4508e-07
0.000113727
-8.64135e-07
0.000114041
-8.81859e-07
0.00011436
-8.98141e-07
0.000114685
-9.12883e-07
0.000115015
-9.25983e-07
0.000115348
-9.37341e-07
0.000115685
-9.4685e-07
0.000116024
-9.54401e-07
0.000116365
-9.59873e-07
0.000116707
-9.6314e-07
0.000117049
-9.64062e-07
0.000117391
-9.62489e-07
0.000117731
-9.58258e-07
0.000118069
-9.51187e-07
0.000118402
-9.41076e-07
0.000118731
-9.27705e-07
0.000119054
-9.10827e-07
0.000119369
-8.90164e-07
0.000119675
-8.65401e-07
0.000119971
-8.36181e-07
0.000120255
-8.02094e-07
0.000120525
-7.62671e-07
0.000120779
-7.17365e-07
0.000121014
-6.65539e-07
0.000121228
-6.06447e-07
0.000121419
-5.39206e-07
0.000121583
-4.62766e-07
0.000121717
-3.75872e-07
0.000121816
-2.77005e-07
0.000121876
-1.64323e-07
0.000121891
-3.55563e-08
0.000121856
1.12124e-07
0.000121762
2.8229e-07
0.000121601
4.79457e-07
0.000121363
7.09402e-07
0.000121036
9.7961e-07
0.000120603
1.2999e-06
0.000120047
1.68332e-06
0.000119345
2.14743e-06
0.000118471
2.7161e-06
0.000117391
3.42207e-06
0.000116067
4.31041e-06
0.000114458
5.44293e-06
0.000112526
6.90264e-06
0.000110253
8.79508e-06
0.000107679
1.12383e-05
0.000104993
1.43214e-05
0.000102701
1.79544e-05
2.1416e-05
0.000101647
0.000114089
-1.80157e-07
0.00011418
-3.33036e-07
0.000114305
-4.59473e-07
0.00011446
-5.62875e-07
0.000114638
-6.47458e-07
0.000114835
-7.15647e-07
0.000115047
-7.68887e-07
0.00011527
-8.0828e-07
0.0001155
-8.34867e-07
0.000115734
-8.49905e-07
0.00011597
-8.55046e-07
0.000116206
-8.52383e-07
0.000116439
-8.44359e-07
0.000116669
-8.3359e-07
0.000116896
-8.22618e-07
0.000117121
-8.1369e-07
0.000117344
-8.08576e-07
0.000117567
-8.08476e-07
0.000117791
-8.13993e-07
0.000118018
-8.25203e-07
0.00011825
-8.41751e-07
0.000118487
-8.62978e-07
0.000118732
-8.8805e-07
0.000118983
-9.16066e-07
0.000119243
-9.46137e-07
0.000119511
-9.7745e-07
0.000119788
-1.0093e-06
0.000120073
-1.04109e-06
0.000120367
-1.07234e-06
0.000120669
-1.10266e-06
0.000120978
-1.13174e-06
0.000121296
-1.15936e-06
0.00012162
-1.18529e-06
0.00012195
-1.20938e-06
0.000122286
-1.23148e-06
0.000122628
-1.25145e-06
0.000122974
-1.26915e-06
0.000123324
-1.28443e-06
0.000123678
-1.29717e-06
0.000124034
-1.3072e-06
0.000124391
-1.31436e-06
0.00012475
-1.31848e-06
0.000125108
-1.31937e-06
0.000125466
-1.31682e-06
0.000125821
-1.31061e-06
0.000126174
-1.30049e-06
0.000126522
-1.2862e-06
0.000126865
-1.26744e-06
0.000127201
-1.24386e-06
0.000127529
-1.2151e-06
0.000127848
-1.18074e-06
0.000128155
-1.14029e-06
0.000128449
-1.09321e-06
0.000128729
-1.03886e-06
0.000128991
-9.76529e-07
0.000129234
-9.05364e-07
0.000129455
-8.2438e-07
0.000129651
-7.32417e-07
0.00012982
-6.28103e-07
0.000129957
-5.098e-07
0.000130058
-3.75548e-07
0.00013012
-2.22977e-07
0.000130136
-4.92016e-08
0.000130102
1.49333e-07
0.00013001
3.77042e-07
0.000129853
6.39445e-07
0.000129622
9.43479e-07
0.000129306
1.29795e-06
0.000128895
1.71412e-06
0.000128374
2.20652e-06
0.000127731
2.79395e-06
0.000126948
3.50089e-06
0.000126014
4.35904e-06
0.000124918
5.40912e-06
0.000123662
6.70205e-06
0.000122269
8.29815e-06
0.000120806
1.02604e-05
0.000119412
1.26344e-05
0.000118337
1.5399e-05
0.000117934
1.83594e-05
2.09544e-05
0.000118398
0.000122078
-2.30067e-07
0.000122174
-4.28812e-07
0.000122308
-5.92446e-07
0.000122472
-7.26477e-07
0.000122661
-8.3608e-07
0.00012287
-9.24413e-07
0.000123095
-9.93378e-07
0.000123332
-1.04441e-06
0.000123577
-1.07886e-06
0.000123827
-1.09835e-06
0.000124078
-1.105e-06
0.000124328
-1.10152e-06
0.000124576
-1.09105e-06
0.000124821
-1.07694e-06
0.000125063
-1.0625e-06
0.000125301
-1.05062e-06
0.000125538
-1.0436e-06
0.000125774
-1.04299e-06
0.000126012
-1.0496e-06
0.000126252
-1.06353e-06
0.000126497
-1.08433e-06
0.000126748
-1.11118e-06
0.000127005
-1.143e-06
0.00012727
-1.17863e-06
0.000127543
-1.21692e-06
0.000127825
-1.25682e-06
0.000128116
-1.29743e-06
0.000128416
-1.33796e-06
0.000128724
-1.3778e-06
0.000129041
-1.41644e-06
0.000129366
-1.45348e-06
0.000129698
-1.4886e-06
0.000130037
-1.52155e-06
0.000130383
-1.55211e-06
0.000130735
-1.58008e-06
0.000131092
-1.60529e-06
0.000131453
-1.62755e-06
0.000131819
-1.64668e-06
0.000132188
-1.66251e-06
0.000132559
-1.67484e-06
0.000132931
-1.68346e-06
0.000133304
-1.68814e-06
0.000133677
-1.68865e-06
0.000134048
-1.68472e-06
0.000134417
-1.67608e-06
0.000134782
-1.66242e-06
0.000135143
-1.64338e-06
0.000135497
-1.6186e-06
0.000135845
-1.58766e-06
0.000136183
-1.55008e-06
0.000136511
-1.50534e-06
0.000136827
-1.45284e-06
0.000137129
-1.39191e-06
0.000137415
-1.32176e-06
0.000137684
-1.24151e-06
0.000137932
-1.15011e-06
0.000138157
-1.04638e-06
0.000138357
-9.28907e-07
0.000138528
-7.9604e-07
0.000138667
-6.45829e-07
0.000138771
-4.75956e-07
0.000138835
-2.83647e-07
0.000138854
-6.55661e-08
0.000138824
1.82323e-07
0.00013874
4.64944e-07
0.000138594
7.88345e-07
0.00013838
1.15996e-06
0.000138092
1.58898e-06
0.000137723
2.08677e-06
0.000137265
2.66744e-06
0.000136713
3.34843e-06
0.000136066
4.15119e-06
0.000135326
5.10162e-06
0.000134508
6.23014e-06
0.000133642
7.57052e-06
0.000132787
9.15602e-06
0.00013204
1.10103e-05
0.000131548
1.31288e-05
0.000131505
1.54442e-05
0.000132095
1.77721e-05
1.97501e-05
0.000133302
0.000130628
-2.82017e-07
0.000130729
-5.29588e-07
0.000130869
-7.32835e-07
0.000131043
-8.99606e-07
0.000131243
-1.03598e-06
0.000131466
-1.14587e-06
0.000131705
-1.23166e-06
0.000131956
-1.29517e-06
0.000132216
-1.33807e-06
0.000132482
-1.36236e-06
0.000132749
-1.37068e-06
0.000133015
-1.36635e-06
0.000133278
-1.35324e-06
0.000133539
-1.33551e-06
0.000133795
-1.31723e-06
0.000134048
-1.30199e-06
0.000134299
-1.29266e-06
0.000134549
-1.29118e-06
0.0001348
-1.29857e-06
0.000135054
-1.31498e-06
0.000135312
-1.33988e-06
0.000135576
-1.37227e-06
0.000135846
-1.41081e-06
0.000136124
-1.45409e-06
0.00013641
-1.50069e-06
0.000136706
-1.54931e-06
0.00013701
-1.59882e-06
0.000137323
-1.64825e-06
0.000137645
-1.69681e-06
0.000137976
-1.7439e-06
0.000138315
-1.78899e-06
0.000138661
-1.8317e-06
0.000139014
-1.87171e-06
0.000139374
-1.90873e-06
0.00013974
-1.94253e-06
0.000140111
-1.97289e-06
0.000140487
-1.99957e-06
0.000140866
-2.02237e-06
0.000141248
-2.04106e-06
0.000141632
-2.05539e-06
0.000142017
-2.06512e-06
0.000142403
-2.06997e-06
0.000142787
-2.06965e-06
0.00014317
-2.06385e-06
0.00014355
-2.05223e-06
0.000143926
-2.0344e-06
0.000144296
-2.00997e-06
0.000144659
-1.97848e-06
0.000145015
-1.93943e-06
0.000145361
-1.89226e-06
0.000145695
-1.83635e-06
0.000146017
-1.771e-06
0.000146324
-1.6954e-06
0.000146615
-1.60865e-06
0.000146887
-1.50972e-06
0.000147137
-1.39742e-06
0.000147365
-1.27037e-06
0.000147567
-1.12698e-06
0.000147739
-9.65396e-07
0.000147881
-7.83445e-07
0.000147987
-5.78573e-07
0.000148054
-3.47768e-07
0.000148079
-8.74683e-08
0.000148059
2.06547e-07
0.000147988
5.39308e-07
0.000147862
9.16856e-07
0.000147679
1.34641e-06
0.000147435
1.8366e-06
0.000147127
2.39767e-06
0.000146756
3.04172e-06
0.000146324
3.78292e-06
0.000145841
4.6374e-06
0.000145323
5.62302e-06
0.000144798
6.75824e-06
0.000144311
8.06e-06
0.000143931
9.53935e-06
0.000143751
1.11938e-05
0.000143888
1.29948e-05
0.000144465
1.48693e-05
0.000145562
1.66785e-05
1.82076e-05
0.000147107
0.000139776
-3.36085e-07
0.000139882
-6.35386e-07
0.00014003
-8.80736e-07
0.000140213
-1.08241e-06
0.000140425
-1.24738e-06
0.000140661
-1.38031e-06
0.000140914
-1.48413e-06
0.000141181
-1.56102e-06
0.000141457
-1.61302e-06
0.000141738
-1.64254e-06
0.000142021
-1.65272e-06
0.000142304
-1.64752e-06
0.000142584
-1.6316e-06
0.00014286
-1.60995e-06
0.000143132
-1.58742e-06
0.0001434
-1.56837e-06
0.000143666
-1.55625e-06
0.00014393
-1.55343e-06
0.000144195
-1.56117e-06
0.000144462
-1.57969e-06
0.000144733
-1.6084e-06
0.00014501
-1.64609e-06
0.000145293
-1.69121e-06
0.000145584
-1.74206e-06
0.000145883
-1.79693e-06
0.000146191
-1.85427e-06
0.000146508
-1.91269e-06
0.000146834
-1.97105e-06
0.000147169
-2.02838e-06
0.000147512
-2.08393e-06
0.000147863
-2.13708e-06
0.000148223
-2.18735e-06
0.000148589
-2.23434e-06
0.000148961
-2.27772e-06
0.00014934
-2.3172e-06
0.000149723
-2.3525e-06
0.00015011
-2.38336e-06
0.000150501
-2.40952e-06
0.000150895
-2.4307e-06
0.00015129
-2.44664e-06
0.000151686
-2.45702e-06
0.000152081
-2.46154e-06
0.000152475
-2.45984e-06
0.000152867
-2.45156e-06
0.000153255
-2.4363e-06
0.000153638
-2.41364e-06
0.000154015
-2.38309e-06
0.000154384
-2.34413e-06
0.000154745
-2.2962e-06
0.000155095
-2.23866e-06
0.000155434
-2.1708e-06
0.000155758
-2.09183e-06
0.000156068
-2.00085e-06
0.00015636
-1.89686e-06
0.000156633
-1.77871e-06
0.000156884
-1.64511e-06
0.000157112
-1.49456e-06
0.000157314
-1.32535e-06
0.000157488
-1.13552e-06
0.000157631
-9.22791e-07
0.000157741
-6.84528e-07
0.000157814
-4.17678e-07
0.000157849
-1.18708e-07
0.000157843
2.16465e-07
0.000157793
5.92564e-07
0.000157699
1.01511e-06
0.000157558
1.49046e-06
0.000157372
2.0259e-06
0.000157144
2.62965e-06
0.000156878
3.31084e-06
0.000156585
4.07933e-06
0.00015628
4.9453e-06
0.000155988
5.91852e-06
0.000155743
7.00694e-06
0.000155591
8.21459e-06
0.000155596
9.53814e-06
0.000155831
1.0962e-05
0.000156377
1.24516e-05
0.000157303
1.39459e-05
0.000158633
1.53516e-05
1.65472e-05
0.000160297
0.000149565
-3.92361e-07
0.000149676
-7.46242e-07
0.000149832
-1.03622e-06
0.000150025
-1.27499e-06
0.000150248
-1.47046e-06
0.000150497
-1.628e-06
0.000150765
-1.7511e-06
0.000151047
-1.84236e-06
0.000151339
-1.90418e-06
0.000151637
-1.9394e-06
0.000151938
-1.95169e-06
0.000152238
-1.94569e-06
0.000152535
-1.92683e-06
0.000152827
-1.90093e-06
0.000153116
-1.87374e-06
0.0001534
-1.85036e-06
0.00015368
-1.83488e-06
0.000153959
-1.83014e-06
0.000154238
-1.83766e-06
0.000154519
-1.85778e-06
0.000154803
-1.88983e-06
0.000155092
-1.93245e-06
0.000155388
-1.98384e-06
0.000155691
-2.04201e-06
0.000156002
-2.10496e-06
0.000156322
-2.17088e-06
0.000156651
-2.23811e-06
0.000156988
-2.3053e-06
0.000157335
-2.37131e-06
0.000157689
-2.43522e-06
0.000158052
-2.49631e-06
0.000158423
-2.55398e-06
0.0001588
-2.60778e-06
0.000159183
-2.65729e-06
0.000159572
-2.70217e-06
0.000159966
-2.7421e-06
0.000160363
-2.77676e-06
0.000160763
-2.80586e-06
0.000161166
-2.82909e-06
0.000161569
-2.8461e-06
0.000161973
-2.85657e-06
0.000162376
-2.86013e-06
0.000162776
-2.8564e-06
0.000163174
-2.84494e-06
0.000163567
-2.82533e-06
0.000163955
-2.79706e-06
0.000164336
-2.75962e-06
0.000164708
-2.71242e-06
0.000165071
-2.65484e-06
0.000165423
-2.58617e-06
0.000165762
-2.50564e-06
0.000166086
-2.4124e-06
0.000166395
-2.30548e-06
0.000166686
-2.18382e-06
0.000166958
-2.04621e-06
0.000167208
-1.8913e-06
0.000167435
-1.71754e-06
0.000167637
-1.52321e-06
0.000167812
-1.30632e-06
0.000167958
-1.06465e-06
0.000168073
-7.95642e-07
0.000168156
-4.96413e-07
0.000168204
-1.63709e-07
0.000168219
2.06104e-07
0.000168198
6.17084e-07
0.000168143
1.0738e-06
0.000168056
1.5813e-06
0.000167941
2.145e-06
0.000167803
2.77065e-06
0.000167654
3.46407e-06
0.000167506
4.2308e-06
0.000167379
5.07558e-06
0.0001673
6.00154e-06
0.000167301
7.009e-06
0.000167425
8.0939e-06
0.000167721
9.24572e-06
0.000168241
1.04449e-05
0.000169036
1.16601e-05
0.000170139
1.28462e-05
0.00017155
1.39443e-05
1.48874e-05
0.000173213
0.000160039
-4.50918e-07
0.000160155
-8.62172e-07
0.000160319
-1.19934e-06
0.000160522
-1.47745e-06
0.000160757
-1.70534e-06
0.000161019
-1.88911e-06
0.000161302
-2.03282e-06
0.0001616
-2.1395e-06
0.000161909
-2.21194e-06
0.000162224
-2.25343e-06
0.000162542
-2.26816e-06
0.00016286
-2.26145e-06
0.000163174
-2.23953e-06
0.000163484
-2.20911e-06
0.00016379
-2.1768e-06
0.00016409
-2.14851e-06
0.000164386
-2.12902e-06
0.00016468
-2.12166e-06
0.000164974
-2.12828e-06
0.000165268
-2.14932e-06
0.000165565
-2.1841e-06
0.000165867
-2.23109e-06
0.000166174
-2.28826e-06
0.000166489
-2.35332e-06
0.000166811
-2.42401e-06
0.000167142
-2.4982e-06
0.000167481
-2.57398e-06
0.000167829
-2.64977e-06
0.000168186
-2.72421e-06
0.000168551
-2.79625e-06
0.000168923
-2.86502e-06
0.000169303
-2.92983e-06
0.00016969
-2.99011e-06
0.000170082
-3.0454e-06
0.000170479
-3.09529e-06
0.000170881
-3.1394e-06
0.000171285
-3.17738e-06
0.000171693
-3.20888e-06
0.000172102
-3.23355e-06
0.000172511
-3.25102e-06
0.00017292
-3.2609e-06
0.000173327
-3.26279e-06
0.000173731
-3.25627e-06
0.000174131
-3.24087e-06
0.000174527
-3.21611e-06
0.000174916
-3.18144e-06
0.000175297
-3.13631e-06
0.000175669
-3.08009e-06
0.000176031
-3.01211e-06
0.000176381
-2.93163e-06
0.000176717
-2.83783e-06
0.000177039
-2.72984e-06
0.000177345
-2.60665e-06
0.000177633
-2.46718e-06
0.000177901
-2.31023e-06
0.000178149
-2.13444e-06
0.000178374
-1.93832e-06
0.000178575
-1.72019e-06
0.000178751
-1.47821e-06
0.000178901
-1.21031e-06
0.000179024
-9.14199e-07
0.000179119
-5.87351e-07
0.000179187
-2.27014e-07
0.000179227
1.6976e-07
0.000179242
6.06096e-07
0.000179235
1.08535e-06
0.000179209
1.61098e-06
0.000179172
2.18642e-06
0.000179131
2.8149e-06
0.0001791
3.49914e-06
0.000179094
4.24103e-06
0.000179132
5.04109e-06
0.00017924
5.89783e-06
0.000179446
6.80699e-06
0.000179783
7.76057e-06
0.000180286
8.74583e-06
0.00018099
9.74431e-06
0.000181923
1.07312e-05
0.000183097
1.16752e-05
0.000184504
1.25407e-05
1.3291e-05
0.000186104
0.000171247
-5.11812e-07
0.000171368
-9.83176e-07
0.000171539
-1.37011e-06
0.000171752
-1.68978e-06
0.000172
-1.95207e-06
0.000172275
-2.16373e-06
0.000172573
-2.32943e-06
0.000172887
-2.45265e-06
0.000173213
-2.53659e-06
0.000173546
-2.58497e-06
0.000173882
-2.60253e-06
0.000174218
-2.59528e-06
0.00017455
-2.57025e-06
0.000174878
-2.53504e-06
0.000175201
-2.49714e-06
0.000175518
-2.46334e-06
0.000175831
-2.4391e-06
0.00017614
-2.42832e-06
0.000176448
-2.43318e-06
0.000176756
-2.4543e-06
0.000177066
-2.491e-06
0.000177379
-2.54161e-06
0.000177698
-2.60388e-06
0.000178024
-2.67525e-06
0.000178356
-2.75313e-06
0.000178697
-2.83511e-06
0.000179046
-2.91901e-06
0.000179403
-3.00298e-06
0.000179768
-3.08548e-06
0.000180141
-3.16526e-06
0.000180521
-3.24131e-06
0.000180909
-3.31283e-06
0.000181302
-3.37915e-06
0.000181701
-3.43973e-06
0.000182104
-3.4941e-06
0.000182511
-3.54183e-06
0.000182921
-3.58251e-06
0.000183332
-3.61575e-06
0.000183744
-3.64116e-06
0.000184156
-3.65834e-06
0.000184567
-3.66686e-06
0.000184975
-3.66629e-06
0.00018538
-3.65616e-06
0.00018578
-3.63599e-06
0.000186174
-3.60524e-06
0.00018656
-3.56337e-06
0.000186939
-3.50977e-06
0.000187307
-3.44379e-06
0.000187665
-3.36475e-06
0.00018801
-3.27189e-06
0.000188341
-3.16439e-06
0.000188657
-3.04137e-06
0.000188957
-2.90186e-06
0.00018924
-2.7448e-06
0.000189503
-2.56904e-06
0.000189747
-2.37331e-06
0.00018997
-2.15624e-06
0.00019017
-1.91633e-06
0.000190349
-1.65195e-06
0.000190504
-1.36134e-06
0.000190637
-1.04261e-06
0.000190748
-6.9375e-07
0.000190838
-3.12671e-07
0.00019091
1.02745e-07
0.000190966
5.5456e-07
0.000191011
1.04481e-06
0.000191051
1.57536e-06
0.000191094
2.14778e-06
0.00019115
2.7631e-06
0.000191231
3.42154e-06
0.000191354
4.12229e-06
0.000191537
4.86308e-06
0.000191799
5.63978e-06
0.000192164
6.44602e-06
0.000192656
7.2727e-06
0.000193298
8.10775e-06
0.00019411
8.93588e-06
0.000195106
9.73883e-06
0.000196289
1.0496e-05
0.000197648
1.1186e-05
1.17891e-05
0.000199153
0.00018324
-5.75082e-07
0.000183366
-1.10921e-06
0.000183545
-1.54846e-06
0.000183768
-1.91194e-06
0.000184027
-2.21057e-06
0.000184316
-2.45182e-06
0.000184628
-2.64093e-06
0.000184959
-2.78186e-06
0.000185302
-2.87823e-06
0.000185653
-2.9342e-06
0.000186007
-2.95507e-06
0.000186361
-2.94751e-06
0.000186712
-2.91935e-06
0.000187058
-2.87909e-06
0.000187399
-2.83516e-06
0.000187733
-2.79517e-06
0.000188062
-2.76537e-06
0.000188387
-2.75024e-06
0.000188709
-2.75236e-06
0.00018903
-2.77256e-06
0.000189353
-2.81019e-06
0.000189678
-2.86349e-06
0.000190008
-2.92997e-06
0.000190343
-3.00683e-06
0.000190685
-3.09117e-06
0.000191034
-3.18026e-06
0.000191391
-3.27166e-06
0.000191755
-3.36324e-06
0.000192127
-3.45323e-06
0.000192506
-3.54021e-06
0.000192893
-3.62299e-06
0.000193285
-3.70064e-06
0.000193683
-3.77241e-06
0.000194085
-3.83765e-06
0.000194492
-3.89584e-06
0.000194901
-3.94648e-06
0.000195313
-3.98911e-06
0.000195725
-4.02332e-06
0.000196138
-4.04867e-06
0.000196549
-4.06472e-06
0.000196958
-4.07103e-06
0.000197364
-4.06712e-06
0.000197766
-4.05252e-06
0.000198162
-4.02671e-06
0.000198551
-3.98915e-06
0.000198932
-3.93927e-06
0.000199304
-3.87646e-06
0.000199665
-3.80008e-06
0.000200015
-3.70945e-06
0.000200352
-3.60381e-06
0.000200675
-3.4824e-06
0.000200983
-3.34437e-06
0.000201275
-3.1888e-06
0.00020155
-3.01475e-06
0.000201808
-2.82116e-06
0.000202046
-2.60694e-06
0.000202266
-2.37091e-06
0.000202466
-2.11183e-06
0.000202648
-1.82839e-06
0.000202811
-1.51923e-06
0.000202956
-1.18297e-06
0.000203085
-8.18222e-07
0.000203201
-4.23627e-07
0.000203307
2.06302e-09
0.000203406
4.59871e-07
0.000203505
9.50519e-07
0.000203611
1.47451e-06
0.000203731
2.03183e-06
0.000203877
2.62183e-06
0.00020406
3.243e-06
0.000204294
3.89281e-06
0.000204594
4.56748e-06
0.000204976
5.2618e-06
0.000205458
5.96895e-06
0.000206054
6.68043e-06
0.00020678
7.38604e-06
0.000207646
8.07408e-06
0.000208658
8.73174e-06
0.000209812
9.3458e-06
0.000211098
9.90362e-06
1.03947e-05
0.000212497
0.000196072
-6.40713e-07
0.000196204
-1.24019e-06
0.00019639
-1.73426e-06
0.000196622
-2.14374e-06
0.000196893
-2.48067e-06
0.000197195
-2.75319e-06
0.000197523
-2.96714e-06
0.000197869
-3.12697e-06
0.000198229
-3.23674e-06
0.000198598
-3.30106e-06
0.00019897
-3.32575e-06
0.000199343
-3.31816e-06
0.000199713
-3.28692e-06
0.000200077
-3.2414e-06
0.000200436
-3.19094e-06
0.000200787
-3.14409e-06
0.000201133
-3.10785e-06
0.000201473
-3.08734e-06
0.000201809
-3.0856e-06
0.000202144
-3.10371e-06
0.000202478
-3.1411e-06
0.000202814
-3.19593e-06
0.000203154
-3.26555e-06
0.000203498
-3.34688e-06
0.000203847
-3.43673e-06
0.000204203
-3.53207e-06
0.000204566
-3.63014e-06
0.000204936
-3.72855e-06
0.000205312
-3.8253e-06
0.000205695
-3.91873e-06
0.000206085
-4.00752e-06
0.00020648
-4.09058e-06
0.000206879
-4.16704e-06
0.000207283
-4.23617e-06
0.000207689
-4.29737e-06
0.000208098
-4.35009e-06
0.000208508
-4.39383e-06
0.000208918
-4.42811e-06
0.000209327
-4.45249e-06
0.000209734
-4.4665e-06
0.000210138
-4.46966e-06
0.000210538
-4.46151e-06
0.000210933
-4.44153e-06
0.000211321
-4.40922e-06
0.000211701
-4.36404e-06
0.000212073
-4.30541e-06
0.000212434
-4.23276e-06
0.000212785
-4.14546e-06
0.000213124
-4.04286e-06
0.00021345
-3.92428e-06
0.000213762
-3.789e-06
0.00021406
-3.63626e-06
0.000214342
-3.46529e-06
0.000214608
-3.27524e-06
0.000214857
-3.06527e-06
0.00021509
-2.83449e-06
0.000215307
-2.58198e-06
0.000215507
-2.30684e-06
0.000215692
-2.00815e-06
0.000215863
-1.68502e-06
0.000216022
-1.33662e-06
0.000216172
-9.62196e-07
0.000216314
-5.61143e-07
0.000216455
-1.33039e-07
0.000216597
3.22224e-07
0.000216749
8.0429e-07
0.000216916
1.31254e-06
0.000217107
1.84581e-06
0.000217331
2.40233e-06
0.000217599
2.97957e-06
0.000217923
3.57414e-06
0.000218313
4.18174e-06
0.000218783
4.79709e-06
0.000219342
5.4139e-06
0.000220003
6.02499e-06
0.000220771
6.62235e-06
0.000221652
7.19747e-06
0.000222647
7.74164e-06
0.00022375
8.24651e-06
0.000224954
8.70472e-06
9.11077e-06
0.000226242
0.000209803
-7.08662e-07
0.000209939
-1.37594e-06
0.000210133
-1.92725e-06
0.000210375
-2.38487e-06
0.000210657
-2.76198e-06
0.000210972
-3.06742e-06
0.000211314
-3.30763e-06
0.000211676
-3.48756e-06
0.000212052
-3.61171e-06
0.000212438
-3.68515e-06
0.000212829
-3.71422e-06
0.00021322
-3.70692e-06
0.000213608
-3.67265e-06
0.00021399
-3.62166e-06
0.000214366
-3.56422e-06
0.000214735
-3.50977e-06
0.000215096
-3.46616e-06
0.000215451
-3.43915e-06
0.000215802
-3.43231e-06
0.000216148
-3.44702e-06
0.000216494
-3.48282e-06
0.00021684
-3.53786e-06
0.000217188
-3.60932e-06
0.000217539
-3.69389e-06
0.000217894
-3.7881e-06
0.000218255
-3.88858e-06
0.000218622
-3.9923e-06
0.000218995
-4.09657e-06
0.000219374
-4.19912e-06
0.000219758
-4.29811e-06
0.000220148
-4.39199e-06
0.000220542
-4.47955e-06
0.00022094
-4.55979e-06
0.000221341
-4.63189e-06
0.000221744
-4.69516e-06
0.000222148
-4.749e-06
0.000222553
-4.79286e-06
0.000222957
-4.82624e-06
0.000223359
-4.84866e-06
0.000223757
-4.85963e-06
0.000224152
-4.85869e-06
0.000224542
-4.84534e-06
0.000224925
-4.8191e-06
0.000225302
-4.77946e-06
0.000225669
-4.72591e-06
0.000226028
-4.6579e-06
0.000226376
-4.57489e-06
0.000226713
-4.47632e-06
0.000227037
-4.3616e-06
0.000227349
-4.23014e-06
0.000227647
-4.08133e-06
0.000227931
-3.91454e-06
0.000228201
-3.72914e-06
0.000228456
-3.5245e-06
0.000228697
-3.29999e-06
0.000228923
-3.05498e-06
0.000229136
-2.78888e-06
0.000229336
-2.50115e-06
0.000229525
-2.19129e-06
0.000229704
-1.85889e-06
0.000229877
-1.50368e-06
0.000230046
-1.12552e-06
0.000230215
-7.24469e-07
0.000230388
-3.00832e-07
0.000230571
1.44785e-07
0.00023077
6.11254e-07
0.000230991
1.09713e-06
0.000231241
1.60053e-06
0.00023153
2.11906e-06
0.000231865
2.64974e-06
0.000232255
3.18898e-06
0.00023271
3.7326e-06
0.000233236
4.2758e-06
0.000233842
4.81329e-06
0.000234532
5.33933e-06
0.000235312
5.84797e-06
0.000236181
6.33321e-06
0.000237138
6.78926e-06
0.000238178
7.21092e-06
0.000239294
7.59394e-06
7.93562e-06
0.000240474
0.000224496
-7.78818e-07
0.000224637
-1.51621e-06
0.000224837
-2.12703e-06
0.000225087
-2.63483e-06
0.00022538
-3.05391e-06
0.000225708
-3.39385e-06
0.000226063
-3.66167e-06
0.00022644
-3.86285e-06
0.000226832
-4.00234e-06
0.000227235
-4.08566e-06
0.000227642
-4.11967e-06
0.000228051
-4.11298e-06
0.000228456
-4.07574e-06
0.000228856
-4.01908e-06
0.000229249
-3.95418e-06
0.000229634
-3.89139e-06
0.00023001
-3.83941e-06
0.000230379
-3.80473e-06
0.000230742
-3.79144e-06
0.0002311
-3.80129e-06
0.000231455
-3.83401e-06
0.00023181
-3.88776e-06
0.000232164
-3.95959e-06
0.000232521
-4.04596e-06
0.00023288
-4.14315e-06
0.000233244
-4.24748e-06
0.000233612
-4.35559e-06
0.000233985
-4.46452e-06
0.000234363
-4.57174e-06
0.000234745
-4.67516e-06
0.000235132
-4.77305e-06
0.000235522
-4.86403e-06
0.000235915
-4.94697e-06
0.000236309
-5.02095e-06
0.000236705
-5.0852e-06
0.000237101
-5.13908e-06
0.000237496
-5.18198e-06
0.000237889
-5.21338e-06
0.00023828
-5.23278e-06
0.000238666
-5.2397e-06
0.000239047
-5.23366e-06
0.000239422
-5.21419e-06
0.00023979
-5.18083e-06
0.00024015
-5.13309e-06
0.000240501
-5.07051e-06
0.000240842
-4.99261e-06
0.000241172
-4.89891e-06
0.000241491
-4.78892e-06
0.000241798
-4.66216e-06
0.000242093
-4.51816e-06
0.000242374
-4.35645e-06
0.000242643
-4.17658e-06
0.000242898
-3.97809e-06
0.00024314
-3.7606e-06
0.00024337
-3.52371e-06
0.000243589
-3.26711e-06
0.000243797
-2.99054e-06
0.000243995
-2.69383e-06
0.000244187
-2.3769e-06
0.000244374
-2.03981e-06
0.000244559
-1.68278e-06
0.000244746
-1.30619e-06
0.000244938
-9.10679e-07
0.000245141
-4.97096e-07
0.000245358
-6.65333e-08
0.000245596
3.79424e-07
0.00024586
8.38754e-07
0.000246157
1.30924e-06
0.000246493
1.78828e-06
0.000246876
2.27285e-06
0.000247311
2.75958e-06
0.000247804
3.24471e-06
0.000248361
3.72421e-06
0.000248986
4.19385e-06
0.000249682
4.64927e-06
0.000250449
5.08617e-06
0.000251287
5.50041e-06
0.000252193
5.88823e-06
0.000253163
6.24641e-06
0.000254189
6.57258e-06
6.86552e-06
0.000255265
0.000240217
-8.51013e-07
0.000240362
-1.66062e-06
0.000240569
-2.33303e-06
0.000240827
-2.8929e-06
0.00024113
-3.35561e-06
0.000241469
-3.73149e-06
0.000241837
-4.02818e-06
0.000242227
-4.25167e-06
0.000242634
-4.40739e-06
0.000243052
-4.50128e-06
0.000243475
-4.54072e-06
0.000243899
-4.53493e-06
0.000244321
-4.49477e-06
0.000244737
-4.43221e-06
0.000245145
-4.35934e-06
0.000245545
-4.28744e-06
0.000245935
-4.22607e-06
0.000246316
-4.18246e-06
0.00024669
-4.1613e-06
0.000247058
-4.16476e-06
0.000247421
-4.19278e-06
0.000247781
-4.24356e-06
0.00024814
-4.3141e-06
0.000248499
-4.40067e-06
0.00024886
-4.49926e-06
0.000249224
-4.60592e-06
0.000249591
-4.71697e-06
0.000249961
-4.82916e-06
0.000250334
-4.93969e-06
0.000250711
-5.04621e-06
0.00025109
-5.14682e-06
0.000251472
-5.23995e-06
0.000251856
-5.32434e-06
0.00025224
-5.39898e-06
0.000252624
-5.46301e-06
0.000253007
-5.51572e-06
0.000253388
-5.55649e-06
0.000253765
-5.58477e-06
0.000254139
-5.60005e-06
0.000254508
-5.60186e-06
0.000254871
-5.58974e-06
0.000255226
-5.56326e-06
0.000255574
-5.52198e-06
0.000255913
-5.46548e-06
0.000256243
-5.39336e-06
0.000256562
-5.30522e-06
0.000256871
-5.20067e-06
0.000257168
-5.07933e-06
0.000257454
-4.94087e-06
0.000257727