/*--------------------------------*- C++ -*----------------------------------*\
| =========                 |                                                 |
| \\      /  F ield         | OpenFOAM: The Open Source CFD Toolbox           |
|  \\    /   O peration     | Version:  2106                                  |
|   \\  /    A nd           | Website:  www.openfoam.com                      |
|    \\/     M anipulation  |                                                 |
\*---------------------------------------------------------------------------*/
FoamFile
{
    version     2.0;
    format      ascii;
    arch        "LSB;label=32;scalar=64";
    class       volScalarField;
    location    "1.8";
    object      T;
}
// * * * * * * * * * * * * * * * * * * * * * * * * * * * * * * * * * * * * * //

dimensions      [0 0 0 1 0 0 0];

internalField   nonuniform List<scalar> 
12013
(
300.001
300.003
300.005
300.008
300.01
300.013
300.016
300.019
300.023
300.027
300.031
300.035
300.04
300.045
300.051
300.057
300.063
300.07
300.078
300.086
300.094
300.103
300.113
300.123
300.134
300.146
300.158
300.171
300.185
300.199
300.214
300.23
300.246
300.264
300.282
300.301
300.321
300.342
300.363
300.386
300.409
300.434
300.459
300.485
300.512
300.54
300.569
300.6
300.631
300.663
300.696
300.731
300.766
300.803
300.841
300.88
300.92
300.962
301.005
301.049
301.095
301.142
301.191
301.241
301.293
301.347
301.402
301.46
301.52
301.582
301.647
301.714
301.785
301.859
301.937
302.021
302.11
302.207
302.313
302.434
302.579
300.001
300.003
300.005
300.008
300.01
300.013
300.016
300.019
300.023
300.027
300.031
300.035
300.04
300.045
300.051
300.057
300.063
300.07
300.078
300.086
300.094
300.103
300.113
300.123
300.134
300.146
300.158
300.171
300.184
300.199
300.214
300.23
300.246
300.264
300.282
300.301
300.321
300.342
300.363
300.386
300.409
300.433
300.459
300.485
300.512
300.54
300.569
300.599
300.631
300.663
300.696
300.731
300.766
300.803
300.841
300.88
300.92
300.962
301.004
301.049
301.094
301.141
301.19
301.24
301.292
301.346
301.401
301.459
301.518
301.58
301.645
301.712
301.782
301.856
301.934
302.016
302.104
302.198
302.3
302.413
302.537
300.001
300.003
300.005
300.008
300.01
300.013
300.016
300.019
300.023
300.027
300.031
300.035
300.04
300.045
300.051
300.057
300.063
300.07
300.078
300.086
300.094
300.103
300.113
300.123
300.134
300.146
300.158
300.171
300.184
300.199
300.214
300.23
300.246
300.264
300.282
300.301
300.321
300.341
300.363
300.386
300.409
300.433
300.458
300.485
300.512
300.54
300.569
300.599
300.63
300.662
300.696
300.73
300.766
300.802
300.84
300.879
300.919
300.961
301.003
301.048
301.093
301.14
301.189
301.239
301.29
301.344
301.399
301.456
301.515
301.577
301.641
301.707
301.777
301.849
301.926
302.006
302.091
302.181
302.276
302.377
302.483
300.001
300.003
300.005
300.008
300.01
300.013
300.016
300.019
300.023
300.027
300.031
300.035
300.04
300.045
300.051
300.057
300.063
300.07
300.078
300.086
300.094
300.103
300.113
300.123
300.134
300.146
300.158
300.171
300.184
300.199
300.214
300.23
300.246
300.264
300.282
300.301
300.321
300.341
300.363
300.385
300.409
300.433
300.458
300.484
300.511
300.539
300.568
300.599
300.63
300.662
300.695
300.729
300.765
300.801
300.839
300.878
300.918
300.959
301.002
301.046
301.091
301.138
301.186
301.236
301.287
301.34
301.395
301.452
301.511
301.571
301.634
301.7
301.768
301.839
301.913
301.99
302.071
302.156
302.244
302.334
302.425
300.001
300.003
300.005
300.008
300.01
300.013
300.016
300.019
300.023
300.027
300.031
300.035
300.04
300.045
300.051
300.057
300.063
300.07
300.078
300.086
300.094
300.103
300.113
300.123
300.134
300.146
300.158
300.171
300.184
300.198
300.214
300.229
300.246
300.263
300.281
300.3
300.32
300.341
300.362
300.385
300.408
300.432
300.458
300.484
300.511
300.539
300.568
300.598
300.629
300.661
300.694
300.728
300.763
300.8
300.837
300.876
300.916
300.957
301
301.043
301.088
301.135
301.183
301.232
301.283
301.336
301.39
301.446
301.504
301.563
301.625
301.689
301.756
301.824
301.896
301.969
302.046
302.124
302.205
302.286
302.366
300.001
300.003
300.005
300.008
300.01
300.013
300.016
300.019
300.023
300.027
300.031
300.035
300.04
300.045
300.051
300.057
300.063
300.07
300.078
300.086
300.094
300.103
300.113
300.123
300.134
300.145
300.158
300.17
300.184
300.198
300.213
300.229
300.246
300.263
300.281
300.3
300.32
300.34
300.362
300.384
300.408
300.432
300.457
300.483
300.51
300.538
300.567
300.597
300.627
300.659
300.692
300.726
300.762
300.798
300.835
300.874
300.913
300.954
300.997
301.04
301.085
301.131
301.178
301.227
301.277
301.329
301.383
301.438
301.494
301.553
301.613
301.675
301.74
301.806
301.874
301.943
302.015
302.087
302.161
302.234
302.306
300.001
300.003
300.005
300.008
300.01
300.013
300.016
300.019
300.023
300.027
300.031
300.035
300.04
300.045
300.051
300.057
300.063
300.07
300.077
300.085
300.094
300.103
300.113
300.123
300.134
300.145
300.157
300.17
300.184
300.198
300.213
300.229
300.245
300.262
300.281
300.299
300.319
300.34
300.361
300.384
300.407
300.431
300.456
300.482
300.509
300.536
300.565
300.595
300.626
300.658
300.69
300.724
300.759
300.795
300.832
300.871
300.91
300.951
300.992
301.035
301.08
301.125
301.172
301.22
301.27
301.321
301.373
301.427
301.482
301.539
301.598
301.658
301.719
301.783
301.847
301.913
301.979
302.046
302.114
302.18
302.246
300.001
300.003
300.005
300.008
300.01
300.013
300.016
300.019
300.023
300.027
300.031
300.035
300.04
300.045
300.051
300.057
300.063
300.07
300.077
300.085
300.094
300.103
300.112
300.123
300.133
300.145
300.157
300.17
300.183
300.198
300.212
300.228
300.245
300.262
300.28
300.299
300.318
300.339
300.36
300.383
300.406
300.43
300.454
300.48
300.507
300.535
300.563
300.593
300.624
300.655
300.688
300.721
300.756
300.792
300.829
300.867
300.906
300.946
300.987
301.03
301.073
301.118
301.164
301.212
301.26
301.31
301.361
301.414
301.468
301.523
301.579
301.637
301.696
301.756
301.816
301.878
301.94
302.002
302.064
302.125
302.184
300.001
300.003
300.005
300.008
300.01
300.013
300.016
300.019
300.023
300.027
300.031
300.035
300.04
300.045
300.05
300.056
300.063
300.07
300.077
300.085
300.094
300.103
300.112
300.122
300.133
300.144
300.157
300.169
300.183
300.197
300.212
300.228
300.244
300.261
300.279
300.298
300.317
300.338
300.359
300.381
300.404
300.428
300.453
300.479
300.505
300.533
300.561
300.591
300.621
300.652
300.685
300.718
300.752
300.788
300.824
300.862
300.9
300.94
300.981
301.022
301.065
301.109
301.155
301.201
301.248
301.297
301.347
301.398
301.45
301.503
301.557
301.612
301.668
301.725
301.782
301.839
301.897
301.954
302.011
302.067
302.122
300.001
300.003
300.005
300.008
300.01
300.013
300.016
300.019
300.023
300.027
300.031
300.035
300.04
300.045
300.05
300.056
300.063
300.07
300.077
300.085
300.093
300.102
300.112
300.122
300.133
300.144
300.156
300.169
300.182
300.196
300.211
300.227
300.243
300.26
300.278
300.297
300.316
300.337
300.358
300.38
300.403
300.426
300.451
300.476
300.503
300.53
300.558
300.587
300.618
300.649
300.681
300.714
300.748
300.783
300.819
300.856
300.893
300.932
300.973
301.014
301.056
301.099
301.143
301.188
301.234
301.282
301.33
301.379
301.429
301.48
301.532
301.584
301.637
301.69
301.744
301.798
301.851
301.904
301.957
302.008
302.059
300.001
300.003
300.005
300.008
300.01
300.013
300.016
300.019
300.023
300.026
300.03
300.035
300.04
300.045
300.05
300.056
300.063
300.069
300.077
300.085
300.093
300.102
300.111
300.121
300.132
300.144
300.156
300.168
300.182
300.196
300.21
300.226
300.242
300.259
300.277
300.295
300.315
300.335
300.356
300.378
300.4
300.424
300.448
300.474
300.5
300.527
300.555
300.584
300.613
300.644
300.676
300.708
300.742
300.776
300.812
300.848
300.885
300.924
300.963
301.003
301.044
301.086
301.129
301.173
301.218
301.263
301.31
301.357
301.405
301.454
301.503
301.552
301.602
301.652
301.703
301.753
301.802
301.852
301.9
301.948
301.995
300.001
300.003
300.005
300.008
300.01
300.013
300.016
300.019
300.023
300.026
300.03
300.035
300.039
300.045
300.05
300.056
300.062
300.069
300.076
300.084
300.093
300.101
300.111
300.121
300.132
300.143
300.155
300.167
300.181
300.195
300.209
300.225
300.241
300.258
300.275
300.294
300.313
300.333
300.354
300.375
300.398
300.421
300.445
300.47
300.496
300.523
300.551
300.579
300.609
300.639
300.67
300.702
300.735
300.769
300.804
300.839
300.876
300.913
300.951
300.991
301.031
301.071
301.113
301.156
301.199
301.243
301.287
301.332
301.378
301.424
301.471
301.517
301.564
301.611
301.658
301.705
301.751
301.797
301.842
301.886
301.93
300.001
300.003
300.005
300.008
300.01
300.013
300.016
300.019
300.023
300.026
300.03
300.035
300.039
300.044
300.05
300.056
300.062
300.069
300.076
300.084
300.092
300.101
300.11
300.12
300.131
300.142
300.154
300.166
300.18
300.193
300.208
300.223
300.239
300.256
300.274
300.292
300.311
300.331
300.351
300.373
300.395
300.418
300.442
300.467
300.492
300.518
300.546
300.574
300.603
300.632
300.663
300.695
300.727
300.76
300.794
300.829
300.864
300.901
300.938
300.976
301.015
301.054
301.095
301.135
301.177
301.219
301.261
301.304
301.348
301.392
301.435
301.48
301.524
301.568
301.611
301.655
301.698
301.74
301.782
301.823
301.863
300.001
300.003
300.005
300.008
300.01
300.013
300.016
300.019
300.022
300.026
300.03
300.034
300.039
300.044
300.05
300.055
300.062
300.068
300.076
300.083
300.092
300.1
300.11
300.12
300.13
300.141
300.153
300.165
300.178
300.192
300.207
300.222
300.237
300.254
300.271
300.289
300.308
300.328
300.348
300.369
300.391
300.414
300.438
300.462
300.487
300.513
300.54
300.567
300.596
300.625
300.655
300.686
300.717
300.75
300.783
300.817
300.851
300.887
300.923
300.96
300.997
301.035
301.074
301.113
301.152
301.192
301.233
301.274
301.315
301.356
301.397
301.439
301.48
301.521
301.562
301.602
301.642
301.682
301.721
301.759
301.796
300.001
300.003
300.005
300.008
300.01
300.013
300.016
300.019
300.022
300.026
300.03
300.034
300.039
300.044
300.049
300.055
300.061
300.068
300.075
300.083
300.091
300.1
300.109
300.119
300.129
300.14
300.152
300.164
300.177
300.19
300.205
300.22
300.235
300.252
300.269
300.287
300.305
300.325
300.345
300.365
300.387
300.409
300.433
300.456
300.481
300.507
300.533
300.56
300.588
300.616
300.645
300.675
300.706
300.738
300.77
300.803
300.836
300.87
300.905
300.941
300.977
301.013
301.05
301.087
301.125
301.163
301.201
301.24
301.279
301.318
301.356
301.395
301.434
301.472
301.51
301.548
301.585
301.621
301.657
301.693
301.728
300.001
300.003
300.005
300.008
300.01
300.013
300.016
300.019
300.022
300.026
300.03
300.034
300.038
300.043
300.049
300.055
300.061
300.067
300.074
300.082
300.09
300.099
300.108
300.118
300.128
300.139
300.15
300.162
300.175
300.189
300.203
300.217
300.233
300.249
300.266
300.283
300.302
300.321
300.34
300.361
300.382
300.404
300.427
300.45
300.474
300.499
300.525
300.551
300.578
300.606
300.635
300.664
300.694
300.724
300.755
300.787
300.819
300.852
300.885
300.919
300.954
300.989
301.024
301.059
301.095
301.131
301.167
301.204
301.24
301.276
301.313
301.349
301.385
301.42
301.456
301.491
301.525
301.559
301.593
301.626
301.658
300.001
300.003
300.005
300.008
300.01
300.013
300.016
300.019
300.022
300.026
300.029
300.034
300.038
300.043
300.048
300.054
300.06
300.067
300.074
300.081
300.089
300.098
300.107
300.116
300.126
300.137
300.149
300.16
300.173
300.186
300.2
300.215
300.23
300.246
300.262
300.28
300.298
300.316
300.336
300.356
300.376
300.398
300.42
300.443
300.466
300.491
300.516
300.541
300.568
300.594
300.622
300.65
300.679
300.708
300.738
300.769
300.8
300.831
300.863
300.896
300.928
300.962
300.995
301.028
301.062
301.096
301.13
301.164
301.198
301.233
301.266
301.3
301.334
301.367
301.4
301.432
301.464
301.496
301.527
301.557
301.587
300.001
300.003
300.005
300.007
300.01
300.013
300.015
300.018
300.022
300.025
300.029
300.033
300.038
300.043
300.048
300.053
300.059
300.066
300.073
300.08
300.088
300.096
300.105
300.115
300.125
300.135
300.147
300.158
300.171
300.184
300.197
300.212
300.226
300.242
300.258
300.275
300.293
300.311
300.33
300.349
300.37
300.391
300.412
300.434
300.457
300.481
300.505
300.53
300.555
300.581
300.608
300.635
300.663
300.691
300.72
300.749
300.779
300.809
300.839
300.87
300.901
300.932
300.964
300.995
301.027
301.059
301.091
301.123
301.155
301.186
301.218
301.249
301.28
301.311
301.342
301.372
301.401
301.431
301.459
301.488
301.515
300.001
300.003
300.005
300.007
300.01
300.012
300.015
300.018
300.021
300.025
300.029
300.033
300.037
300.042
300.047
300.053
300.059
300.065
300.072
300.079
300.087
300.095
300.104
300.113
300.123
300.133
300.144
300.156
300.168
300.181
300.194
300.208
300.223
300.238
300.254
300.27
300.287
300.305
300.323
300.342
300.362
300.382
300.403
300.425
300.447
300.47
300.493
300.517
300.542
300.567
300.592
300.618
300.645
300.672
300.699
300.727
300.755
300.783
300.812
300.841
300.871
300.9
300.93
300.959
300.989
301.019
301.049
301.079
301.108
301.138
301.167
301.196
301.225
301.254
301.282
301.31
301.337
301.364
301.391
301.417
301.443
300.001
300.003
300.005
300.007
300.01
300.012
300.015
300.018
300.021
300.025
300.028
300.032
300.037
300.041
300.046
300.052
300.058
300.064
300.071
300.078
300.085
300.093
300.102
300.111
300.121
300.131
300.142
300.153
300.165
300.177
300.19
300.204
300.218
300.233
300.248
300.264
300.281
300.298
300.316
300.334
300.354
300.373
300.393
300.414
300.436
300.457
300.48
300.503
300.526
300.55
300.575
300.599
300.625
300.65
300.676
300.703
300.729
300.756
300.783
300.811
300.838
300.866
300.893
300.921
300.949
300.977
301.005
301.032
301.06
301.087
301.114
301.141
301.168
301.194
301.22
301.246
301.271
301.296
301.321
301.345
301.369
300.001
300.003
300.005
300.007
300.009
300.012
300.015
300.018
300.021
300.024
300.028
300.032
300.036
300.041
300.046
300.051
300.057
300.063
300.069
300.076
300.084
300.092
300.1
300.109
300.118
300.128
300.139
300.15
300.161
300.173
300.186
300.199
300.213
300.227
300.242
300.258
300.274
300.291
300.308
300.326
300.344
300.363
300.382
300.402
300.423
300.444
300.465
300.487
300.509
300.532
300.555
300.579
300.603
300.627
300.651
300.676
300.701
300.727
300.752
300.778
300.803
300.829
300.855
300.881
300.907
300.933
300.958
300.984
301.009
301.035
301.06
301.085
301.109
301.133
301.157
301.181
301.205
301.228
301.25
301.273
301.294
300.001
300.003
300.005
300.007
300.009
300.012
300.014
300.017
300.02
300.024
300.027
300.031
300.035
300.04
300.045
300.05
300.055
300.061
300.068
300.075
300.082
300.09
300.098
300.106
300.115
300.125
300.135
300.146
300.157
300.169
300.181
300.194
300.207
300.221
300.235
300.25
300.266
300.282
300.298
300.315
300.333
300.351
300.37
300.389
300.408
300.428
300.449
300.469
300.491
300.512
300.534
300.556
300.579
300.602
300.625
300.648
300.671
300.695
300.719
300.743
300.766
300.79
300.814
300.838
300.862
300.886
300.91
300.934
300.957
300.98
301.003
301.026
301.049
301.071
301.093
301.115
301.137
301.158
301.179
301.199
301.219
300.001
300.003
300.005
300.007
300.009
300.011
300.014
300.017
300.02
300.023
300.027
300.03
300.034
300.039
300.044
300.049
300.054
300.06
300.066
300.073
300.08
300.087
300.095
300.103
300.112
300.122
300.131
300.142
300.153
300.164
300.176
300.188
300.201
300.214
300.228
300.242
300.257
300.272
300.288
300.304
300.321
300.338
300.356
300.374
300.393
300.411
300.431
300.45
300.47
300.491
300.511
300.532
300.553
300.574
300.596
300.618
300.639
300.661
300.683
300.706
300.728
300.75
300.772
300.794
300.816
300.838
300.86
300.882
300.903
300.925
300.946
300.967
300.988
301.008
301.028
301.048
301.068
301.087
301.106
301.125
301.144
300.001
300.003
300.005
300.007
300.009
300.011
300.014
300.016
300.019
300.022
300.026
300.03
300.034
300.038
300.042
300.047
300.053
300.058
300.064
300.071
300.077
300.085
300.092
300.1
300.109
300.118
300.127
300.137
300.147
300.158
300.169
300.181
300.193
300.206
300.219
300.233
300.247
300.262
300.277
300.292
300.308
300.324
300.341
300.358
300.375
300.393
300.411
300.43
300.448
300.467
300.486
300.506
300.526
300.545
300.565
300.585
300.606
300.626
300.646
300.667
300.687
300.708
300.728
300.748
300.768
300.789
300.809
300.828
300.848
300.868
300.887
300.906
300.925
300.944
300.962
300.981
300.998
301.016
301.034
301.051
301.068
300.001
300.003
300.004
300.006
300.009
300.011
300.013
300.016
300.019
300.022
300.025
300.029
300.032
300.037
300.041
300.046
300.051
300.056
300.062
300.068
300.075
300.082
300.089
300.097
300.105
300.113
300.122
300.132
300.142
300.152
300.163
300.174
300.186
300.198
300.21
300.223
300.236
300.25
300.264
300.279
300.294
300.309
300.325
300.341
300.357
300.373
300.39
300.407
300.425
300.442
300.46
300.478
300.496
300.515
300.533
300.552
300.57
300.589
300.608
300.626
300.645
300.664
300.682
300.701
300.719
300.738
300.756
300.774
300.792
300.81
300.827
300.845
300.862
300.879
300.896
300.912
300.929
300.945
300.961
300.976
300.991
300.001
300.003
300.004
300.006
300.008
300.01
300.013
300.015
300.018
300.021
300.024
300.028
300.031
300.035
300.039
300.044
300.049
300.054
300.06
300.065
300.072
300.078
300.085
300.093
300.1
300.108
300.117
300.126
300.135
300.145
300.155
300.166
300.177
300.188
300.2
300.212
300.225
300.238
300.251
300.264
300.278
300.293
300.307
300.322
300.337
300.353
300.368
300.384
300.4
300.416
300.433
300.449
300.466
300.483
300.5
300.517
300.534
300.551
300.568
300.585
300.602
300.619
300.636
300.653
300.669
300.686
300.703
300.719
300.735
300.751
300.767
300.783
300.799
300.814
300.829
300.844
300.859
300.873
300.888
300.902
300.916
300.001
300.002
300.004
300.006
300.008
300.01
300.012
300.015
300.017
300.02
300.023
300.026
300.03
300.034
300.038
300.042
300.047
300.052
300.057
300.062
300.068
300.075
300.081
300.088
300.096
300.103
300.111
300.12
300.129
300.138
300.147
300.157
300.167
300.178
300.189
300.2
300.212
300.224
300.236
300.249
300.262
300.275
300.289
300.302
300.316
300.33
300.345
300.359
300.374
300.389
300.404
300.419
300.434
300.45
300.465
300.48
300.496
300.511
300.527
300.542
300.558
300.573
300.588
300.603
300.619
300.634
300.649
300.663
300.678
300.692
300.707
300.721
300.735
300.749
300.762
300.776
300.789
300.802
300.815
300.828
300.84
300.001
300.002
300.004
300.006
300.008
300.01
300.012
300.014
300.017
300.019
300.022
300.025
300.028
300.032
300.036
300.04
300.044
300.049
300.054
300.059
300.065
300.071
300.077
300.083
300.09
300.097
300.105
300.113
300.121
300.13
300.139
300.148
300.157
300.167
300.177
300.188
300.199
300.21
300.221
300.233
300.245
300.257
300.269
300.282
300.294
300.307
300.32
300.334
300.347
300.361
300.374
300.388
300.402
300.415
300.429
300.443
300.457
300.471
300.485
300.499
300.513
300.527
300.54
300.554
300.568
300.581
300.594
300.608
300.621
300.634
300.646
300.659
300.672
300.684
300.696
300.708
300.72
300.732
300.743
300.755
300.766
300.001
300.002
300.004
300.005
300.007
300.009
300.011
300.013
300.016
300.018
300.021
300.024
300.027
300.03
300.034
300.038
300.042
300.046
300.051
300.056
300.061
300.066
300.072
300.078
300.085
300.091
300.098
300.106
300.113
300.121
300.129
300.138
300.147
300.156
300.165
300.175
300.185
300.195
300.205
300.216
300.226
300.237
300.249
300.26
300.272
300.283
300.295
300.307
300.319
300.331
300.344
300.356
300.368
300.381
300.393
300.406
300.418
300.431
300.443
300.455
300.468
300.48
300.492
300.504
300.516
300.528
300.54
300.552
300.564
300.575
300.587
300.598
300.609
300.62
300.631
300.642
300.652
300.662
300.673
300.683
300.693
300.001
300.002
300.004
300.005
300.007
300.009
300.01
300.012
300.015
300.017
300.02
300.022
300.025
300.028
300.032
300.035
300.039
300.043
300.047
300.052
300.057
300.062
300.067
300.073
300.079
300.085
300.091
300.098
300.105
300.112
300.12
300.127
300.135
300.144
300.152
300.161
300.17
300.179
300.188
300.198
300.208
300.218
300.228
300.238
300.248
300.259
300.269
300.28
300.291
300.302
300.313
300.324
300.335
300.346
300.357
300.368
300.379
300.39
300.401
300.412
300.423
300.434
300.445
300.455
300.466
300.476
300.487
300.497
300.508
300.518
300.528
300.538
300.548
300.557
300.567
300.576
300.585
300.595
300.604
300.612
300.621
300.001
300.002
300.003
300.005
300.006
300.008
300.01
300.012
300.014
300.016
300.018
300.021
300.023
300.026
300.029
300.033
300.036
300.04
300.044
300.048
300.052
300.057
300.062
300.067
300.072
300.078
300.084
300.09
300.096
300.103
300.11
300.117
300.124
300.131
300.139
300.147
300.155
300.163
300.171
300.18
300.189
300.197
300.206
300.216
300.225
300.234
300.243
300.253
300.263
300.272
300.282
300.291
300.301
300.311
300.321
300.33
300.34
300.35
300.359
300.369
300.379
300.388
300.398
300.407
300.416
300.426
300.435
300.444
300.453
300.462
300.47
300.479
300.488
300.496
300.504
300.513
300.521
300.529
300.537
300.544
300.552
300.001
300.002
300.003
300.004
300.006
300.007
300.009
300.011
300.013
300.015
300.017
300.019
300.022
300.024
300.027
300.03
300.033
300.037
300.04
300.044
300.048
300.052
300.056
300.061
300.066
300.071
300.076
300.082
300.087
300.093
300.099
300.106
300.112
300.119
300.125
300.132
300.139
300.147
300.154
300.162
300.169
300.177
300.185
300.193
300.201
300.209
300.218
300.226
300.234
300.243
300.251
300.26
300.268
300.277
300.285
300.293
300.302
300.31
300.319
300.327
300.335
300.344
300.352
300.36
300.368
300.376
300.384
300.392
300.4
300.407
300.415
300.422
300.43
300.437
300.444
300.452
300.459
300.465
300.472
300.479
300.486
300.001
300.002
300.003
300.004
300.005
300.007
300.008
300.01
300.011
300.013
300.015
300.017
300.02
300.022
300.024
300.027
300.03
300.033
300.036
300.04
300.043
300.047
300.051
300.055
300.059
300.064
300.069
300.073
300.078
300.084
300.089
300.094
300.1
300.106
300.112
300.118
300.124
300.131
300.137
300.144
300.15
300.157
300.164
300.171
300.178
300.185
300.192
300.199
300.207
300.214
300.221
300.229
300.236
300.243
300.25
300.258
300.265
300.272
300.279
300.287
300.294
300.301
300.308
300.315
300.322
300.329
300.336
300.342
300.349
300.356
300.362
300.368
300.375
300.381
300.387
300.393
300.399
300.405
300.411
300.417
300.423
300
300.001
300.003
300.004
300.005
300.006
300.007
300.009
300.01
300.012
300.014
300.016
300.018
300.02
300.022
300.024
300.027
300.03
300.032
300.035
300.039
300.042
300.045
300.049
300.053
300.057
300.061
300.065
300.069
300.074
300.079
300.083
300.088
300.093
300.099
300.104
300.109
300.115
300.12
300.126
300.132
300.138
300.144
300.15
300.156
300.162
300.168
300.174
300.18
300.186
300.193
300.199
300.205
300.211
300.217
300.224
300.23
300.236
300.242
300.248
300.254
300.26
300.266
300.272
300.278
300.284
300.29
300.295
300.301
300.307
300.312
300.318
300.323
300.328
300.334
300.339
300.344
300.349
300.354
300.359
300.364
300
300.001
300.002
300.003
300.004
300.005
300.007
300.008
300.009
300.011
300.012
300.014
300.016
300.017
300.019
300.022
300.024
300.026
300.029
300.031
300.034
300.037
300.04
300.043
300.046
300.05
300.053
300.057
300.061
300.065
300.069
300.073
300.077
300.081
300.086
300.09
300.095
300.1
300.104
300.109
300.114
300.119
300.124
300.129
300.134
300.139
300.145
300.15
300.155
300.16
300.166
300.171
300.176
300.181
300.186
300.192
300.197
300.202
300.207
300.212
300.217
300.223
300.228
300.233
300.237
300.242
300.247
300.252
300.257
300.261
300.266
300.271
300.275
300.28
300.284
300.288
300.293
300.297
300.301
300.305
300.309
300
300.001
300.002
300.003
300.004
300.005
300.006
300.007
300.008
300.009
300.011
300.012
300.014
300.015
300.017
300.019
300.021
300.023
300.025
300.027
300.03
300.032
300.035
300.037
300.04
300.043
300.046
300.049
300.052
300.056
300.059
300.063
300.066
300.07
300.074
300.078
300.081
300.085
300.089
300.093
300.098
300.102
300.106
300.11
300.115
300.119
300.123
300.128
300.132
300.136
300.141
300.145
300.149
300.154
300.158
300.162
300.167
300.171
300.175
300.18
300.184
300.188
300.192
300.196
300.2
300.204
300.209
300.212
300.216
300.22
300.224
300.228
300.232
300.235
300.239
300.243
300.246
300.25
300.253
300.256
300.26
300
300.001
300.002
300.002
300.003
300.004
300.005
300.006
300.007
300.008
300.009
300.011
300.012
300.013
300.015
300.016
300.018
300.02
300.022
300.024
300.026
300.028
300.03
300.032
300.035
300.037
300.04
300.042
300.045
300.048
300.051
300.054
300.057
300.06
300.063
300.066
300.069
300.073
300.076
300.079
300.083
300.086
300.09
300.093
300.097
300.1
300.104
300.107
300.111
300.115
300.118
300.122
300.126
300.129
300.133
300.136
300.14
300.143
300.147
300.151
300.154
300.157
300.161
300.164
300.168
300.171
300.174
300.178
300.181
300.184
300.187
300.19
300.193
300.196
300.199
300.202
300.205
300.208
300.211
300.214
300.217
300
300.001
300.002
300.002
300.003
300.004
300.004
300.005
300.006
300.007
300.008
300.009
300.01
300.011
300.013
300.014
300.016
300.017
300.019
300.02
300.022
300.024
300.026
300.028
300.03
300.032
300.034
300.036
300.038
300.041
300.043
300.045
300.048
300.051
300.053
300.056
300.059
300.061
300.064
300.067
300.07
300.073
300.076
300.078
300.081
300.084
300.087
300.09
300.093
300.096
300.099
300.102
300.105
300.108
300.111
300.114
300.117
300.12
300.123
300.126
300.129
300.131
300.134
300.137
300.14
300.142
300.145
300.148
300.151
300.153
300.156
300.158
300.161
300.163
300.166
300.168
300.171
300.173
300.175
300.178
300.18
300
300.001
300.001
300.002
300.003
300.003
300.004
300.005
300.005
300.006
300.007
300.008
300.009
300.01
300.011
300.012
300.013
300.015
300.016
300.017
300.019
300.02
300.022
300.024
300.025
300.027
300.029
300.031
300.033
300.035
300.037
300.039
300.041
300.043
300.045
300.048
300.05
300.052
300.055
300.057
300.059
300.062
300.064
300.066
300.069
300.071
300.074
300.076
300.079
300.081
300.084
300.086
300.089
300.091
300.094
300.096
300.099
300.101
300.103
300.106
300.108
300.11
300.113
300.115
300.117
300.12
300.122
300.124
300.126
300.129
300.131
300.133
300.135
300.137
300.139
300.141
300.143
300.145
300.147
300.149
300.151
300
300.001
300.001
300.002
300.002
300.003
300.003
300.004
300.005
300.005
300.006
300.007
300.008
300.009
300.01
300.011
300.012
300.013
300.014
300.015
300.017
300.018
300.019
300.021
300.022
300.024
300.026
300.027
300.029
300.031
300.032
300.034
300.036
300.038
300.04
300.042
300.044
300.046
300.048
300.05
300.052
300.054
300.056
300.058
300.06
300.062
300.064
300.066
300.068
300.071
300.073
300.075
300.077
300.079
300.081
300.083
300.085
300.087
300.089
300.091
300.093
300.095
300.097
300.099
300.101
300.103
300.105
300.107
300.109
300.111
300.113
300.114
300.116
300.118
300.12
300.122
300.123
300.125
300.127
300.128
300.13
300
300.001
300.001
300.002
300.002
300.003
300.003
300.004
300.004
300.005
300.006
300.007
300.007
300.008
300.009
300.01
300.011
300.012
300.013
300.014
300.016
300.017
300.018
300.019
300.021
300.022
300.024
300.025
300.027
300.028
300.03
300.031
300.033
300.035
300.037
300.038
300.04
300.042
300.044
300.046
300.047
300.049
300.051
300.053
300.055
300.057
300.059
300.061
300.063
300.065
300.067
300.069
300.07
300.072
300.074
300.076
300.078
300.08
300.082
300.084
300.085
300.087
300.089
300.091
300.093
300.094
300.096
300.098
300.1
300.101
300.103
300.105
300.106
300.108
300.109
300.111
300.112
300.114
300.116
300.117
300.118
302.77
302.895
302.97
303.04
303.101
303.15
303.183
303.221
303.258
303.293
303.322
303.354
303.386
303.418
303.449
303.479
303.507
303.532
303.558
303.585
303.61
303.637
303.663
303.688
303.713
303.738
303.762
303.785
303.809
303.831
303.854
303.876
303.898
303.919
303.94
303.961
303.981
304.001
304.021
304.04
304.059
304.077
304.097
304.117
304.137
304.155
304.172
304.19
304.209
304.227
304.244
304.26
304.277
304.293
304.31
304.327
304.345
304.361
304.378
304.393
304.406
304.42
304.434
304.449
304.463
304.478
304.492
304.505
304.519
304.532
304.545
304.558
304.57
304.582
304.593
304.605
304.616
304.627
304.637
304.648
304.66
304.671
304.681
304.69
304.699
304.707
304.716
304.726
304.734
304.742
304.748
304.756
304.764
304.771
304.778
304.786
304.793
304.798
304.805
304.81
304.815
304.82
304.825
304.829
304.834
304.839
304.843
304.846
304.849
304.852
304.855
304.858
304.861
304.864
304.866
304.868
304.869
304.871
304.872
304.873
304.874
304.874
304.875
304.874
304.874
304.873
304.872
304.87
304.868
304.865
304.862
304.857
304.853
304.847
304.841
304.833
304.825
304.816
304.806
304.795
304.782
304.769
304.754
304.737
304.719
304.699
304.676
304.652
304.624
304.593
304.554
304.514
304.474
304.429
304.378
304.319
304.254
304.143
304.039
303.905
303.726
302.67
302.78
302.866
302.939
303.001
303.054
303.098
303.139
303.179
303.215
303.249
303.283
303.316
303.349
303.38
303.411
303.44
303.468
303.495
303.522
303.549
303.575
303.602
303.628
303.653
303.678
303.703
303.727
303.75
303.774
303.797
303.819
303.841
303.863
303.884
303.905
303.926
303.946
303.966
303.986
304.005
304.024
304.044
304.064
304.083
304.102
304.12
304.138
304.156
304.174
304.192
304.208
304.225
304.242
304.259
304.276
304.293
304.309
304.326
304.341
304.355
304.369
304.384
304.398
304.413
304.427
304.441
304.455
304.469
304.482
304.495
304.508
304.52
304.532
304.544
304.555
304.566
304.578
304.588
304.599
304.611
304.622
304.632
304.641
304.65
304.658
304.667
304.677
304.685
304.693
304.7
304.708
304.716
304.723
304.73
304.737
304.744
304.75
304.756
304.762
304.767
304.772
304.777
304.781
304.786
304.791
304.795
304.798
304.802
304.805
304.808
304.811
304.814
304.816
304.818
304.82
304.822
304.824
304.825
304.826
304.827
304.827
304.827
304.827
304.826
304.826
304.824
304.823
304.82
304.817
304.814
304.81
304.805
304.799
304.793
304.786
304.778
304.769
304.759
304.747
304.735
304.721
304.706
304.69
304.671
304.651
304.629
304.604
304.576
304.544
304.506
304.467
304.426
304.379
304.327
304.266
304.197
304.089
303.98
303.84
303.644
302.588
302.685
302.768
302.841
302.905
302.96
303.009
303.054
303.096
303.135
303.172
303.208
303.243
303.276
303.309
303.34
303.37
303.399
303.428
303.456
303.483
303.51
303.537
303.564
303.59
303.615
303.64
303.665
303.689
303.712
303.735
303.758
303.781
303.803
303.825
303.846
303.867
303.887
303.908
303.928
303.948
303.967
303.987
304.007
304.026
304.045
304.063
304.082
304.1