/*--------------------------------*- C++ -*----------------------------------*\
| =========                 |                                                 |
| \\      /  F ield         | OpenFOAM: The Open Source CFD Toolbox           |
|  \\    /   O peration     | Version:  2106                                  |
|   \\  /    A nd           | Website:  www.openfoam.com                      |
|    \\/     M anipulation  |                                                 |
\*---------------------------------------------------------------------------*/
FoamFile
{
    version     2.0;
    format      ascii;
    arch        "LSB;label=32;scalar=64";
    class       volVectorField;
    location    "1.8";
    object      U;
}
// * * * * * * * * * * * * * * * * * * * * * * * * * * * * * * * * * * * * * //

dimensions      [0 1 -1 0 0 0 0];

internalField   nonuniform List<vector> 
12013
(
(0.100015 -4.24206e-06 0)
(0.100077 -7.80326e-06 0)
(0.100177 -1.09495e-05 0)
(0.100304 -1.36645e-05 0)
(0.100453 -1.60244e-05 0)
(0.100621 -1.80642e-05 0)
(0.100804 -1.97975e-05 0)
(0.100998 -2.12318e-05 0)
(0.1012 -2.23741e-05 0)
(0.101407 -2.324e-05 0)
(0.101617 -2.38579e-05 0)
(0.101827 -2.42711e-05 0)
(0.102036 -2.45386e-05 0)
(0.102243 -2.47283e-05 0)
(0.102448 -2.49127e-05 0)
(0.10265 -2.51599e-05 0)
(0.102851 -2.55297e-05 0)
(0.103051 -2.60672e-05 0)
(0.103253 -2.68015e-05 0)
(0.103457 -2.77465e-05 0)
(0.103665 -2.89015e-05 0)
(0.103878 -3.02552e-05 0)
(0.104097 -3.17888e-05 0)
(0.104323 -3.34783e-05 0)
(0.104557 -3.52996e-05 0)
(0.104798 -3.72276e-05 0)
(0.105048 -3.92404e-05 0)
(0.105306 -4.13171e-05 0)
(0.105572 -4.3441e-05 0)
(0.105847 -4.55966e-05 0)
(0.106129 -4.77708e-05 0)
(0.106418 -4.99526e-05 0)
(0.106714 -5.21318e-05 0)
(0.107017 -5.42976e-05 0)
(0.107327 -5.64411e-05 0)
(0.107642 -5.85519e-05 0)
(0.107962 -6.06191e-05 0)
(0.108286 -6.26315e-05 0)
(0.108615 -6.45759e-05 0)
(0.108947 -6.64391e-05 0)
(0.109282 -6.82055e-05 0)
(0.109618 -6.9858e-05 0)
(0.109956 -7.13777e-05 0)
(0.110294 -7.27435e-05 0)
(0.110632 -7.39323e-05 0)
(0.110969 -7.49175e-05 0)
(0.111303 -7.56695e-05 0)
(0.111634 -7.61551e-05 0)
(0.11196 -7.63367e-05 0)
(0.112281 -7.61716e-05 0)
(0.112594 -7.5611e-05 0)
(0.112899 -7.45989e-05 0)
(0.113194 -7.3071e-05 0)
(0.113478 -7.09523e-05 0)
(0.113747 -6.81563e-05 0)
(0.114001 -6.45805e-05 0)
(0.114236 -6.01045e-05 0)
(0.114451 -5.45849e-05 0)
(0.114642 -4.78507e-05 0)
(0.114806 -3.96949e-05 0)
(0.114939 -2.9866e-05 0)
(0.115037 -1.8055e-05 0)
(0.115093 -3.87888e-06 0)
(0.115103 1.31505e-05 0)
(0.115059 3.36632e-05 0)
(0.114952 5.84692e-05 0)
(0.114771 8.8629e-05 0)
(0.114503 0.00012556 0)
(0.114131 0.000171194 0)
(0.113633 0.000228213 0)
(0.112982 0.000300435 0)
(0.112139 0.000393425 0)
(0.111054 0.000515506 0)
(0.109655 0.000679484 0)
(0.107841 0.00090562 0)
(0.105462 0.00122689 0)
(0.102292 0.00169853 0)
(0.0979664 0.00241814 0)
(0.0919014 0.00358746 0)
(0.0833611 0.00577789 0)
(0.0736607 0.0115843 0)
(0.100014 -1.29694e-05 0)
(0.100076 -2.39383e-05 0)
(0.100176 -3.36034e-05 0)
(0.100302 -4.19372e-05 0)
(0.100451 -4.91811e-05 0)
(0.100619 -5.54423e-05 0)
(0.100801 -6.07621e-05 0)
(0.100995 -6.51636e-05 0)
(0.101197 -6.86697e-05 0)
(0.101404 -7.13265e-05 0)
(0.101614 -7.3221e-05 0)
(0.101824 -7.44877e-05 0)
(0.102032 -7.53053e-05 0)
(0.102239 -7.58836e-05 0)
(0.102443 -7.64439e-05 0)
(0.102645 -7.71971e-05 0)
(0.102845 -7.83248e-05 0)
(0.103045 -7.99665e-05 0)
(0.103246 -8.22125e-05 0)
(0.10345 -8.51038e-05 0)
(0.103657 -8.86395e-05 0)
(0.103869 -9.27844e-05 0)
(0.104087 -9.74806e-05 0)
(0.104312 -0.000102656 0)
(0.104545 -0.000108235 0)
(0.104786 -0.000114141 0)
(0.105034 -0.000120306 0)
(0.105291 -0.000126668 0)
(0.105556 -0.000133172 0)
(0.105829 -0.000139774 0)
(0.10611 -0.000146433 0)
(0.106397 -0.000153114 0)
(0.106692 -0.000159785 0)
(0.106994 -0.000166416 0)
(0.107301 -0.000172976 0)
(0.107614 -0.000179436 0)
(0.107933 -0.000185761 0)
(0.108255 -0.000191916 0)
(0.108582 -0.000197863 0)
(0.108912 -0.000203559 0)
(0.109244 -0.000208957 0)
(0.109579 -0.000214005 0)
(0.109914 -0.000218645 0)
(0.11025 -0.000222813 0)
(0.110586 -0.000226436 0)
(0.11092 -0.000229434 0)
(0.111251 -0.000231717 0)
(0.11158 -0.000233183 0)
(0.111903 -0.000233717 0)
(0.112221 -0.000233188 0)
(0.112532 -0.000231447 0)
(0.112834 -0.000228323 0)
(0.113126 -0.00022362 0)
(0.113407 -0.000217109 0)
(0.113673 -0.000208526 0)
(0.113924 -0.000197558 0)
(0.114157 -0.000183841 0)
(0.11437 -0.000166937 0)
(0.114558 -0.000146325 0)
(0.11472 -0.000121379 0)
(0.114852 -9.13349e-05 0)
(0.114949 -5.52583e-05 0)
(0.115005 -1.199e-05 0)
(0.115016 3.99382e-05 0)
(0.114974 0.000102407 0)
(0.114871 0.000177831 0)
(0.114696 0.000269361 0)
(0.114438 0.000381182 0)
(0.114081 0.000518953 0)
(0.113606 0.000690469 0)
(0.112987 0.000906698 0)
(0.112194 0.0011834 0)
(0.111184 0.00154372 0)
(0.109902 0.00202244 0)
(0.108274 0.0026729 0)
(0.106199 0.00357816 0)
(0.103547 0.0048683 0)
(0.10014 0.00674597 0)
(0.0957756 0.00952381 0)
(0.0904929 0.0136031 0)
(0.0859326 0.0189621 0)
(0.100013 -2.21043e-05 0)
(0.100075 -4.11122e-05 0)
(0.100174 -5.77601e-05 0)
(0.1003 -7.21099e-05 0)
(0.100448 -8.45804e-05 0)
(0.100615 -9.53567e-05 0)
(0.100797 -0.000104512 0)
(0.10099 -0.000112085 0)
(0.101192 -0.000118117 0)
(0.101398 -0.000122686 0)
(0.101607 -0.000125941 0)
(0.101817 -0.000128113 0)
(0.102025 -0.000129509 0)
(0.102231 -0.000130489 0)
(0.102434 -0.000131433 0)
(0.102635 -0.000132706 0)
(0.102835 -0.000134619 0)
(0.103034 -0.000137413 0)
(0.103234 -0.000141243 0)
(0.103436 -0.000146182 0)
(0.103642 -0.000152227 0)
(0.103852 -0.000159318 0)
(0.104069 -0.000167357 0)
(0.104292 -0.000176219 0)
(0.104523 -0.000185773 0)
(0.104762 -0.00019589 0)
(0.105008 -0.00020645 0)
(0.105263 -0.000217346 0)
(0.105525 -0.000228487 0)
(0.105795 -0.000239792 0)
(0.106073 -0.000251193 0)
(0.106358 -0.000262629 0)
(0.10665 -0.000274046 0)
(0.106948 -0.00028539 0)
(0.107252 -0.00029661 0)
(0.107562 -0.000307652 0)
(0.107876 -0.000318461 0)
(0.108195 -0.000328974 0)
(0.108518 -0.000339125 0)
(0.108844 -0.000348841 0)
(0.109172 -0.000358042 0)
(0.109502 -0.000366637 0)
(0.109833 -0.000374528 0)
(0.110164 -0.000381603 0)
(0.110495 -0.00038774 0)
(0.110823 -0.0003928 0)
(0.11115 -0.000396629 0)
(0.111473 -0.000399053 0)
(0.111791 -0.000399875 0)
(0.112103 -0.000398872 0)
(0.112408 -0.00039579 0)
(0.112705 -0.000390338 0)
(0.112991 -0.000382181 0)
(0.113266 -0.000370933 0)
(0.113527 -0.000356142 0)
(0.113773 -0.000337283 0)
(0.114 -0.000313737 0)
(0.114207 -0.000284768 0)
(0.114392 -0.0002495 0)
(0.114549 -0.000206881 0)
(0.114677 -0.000155636 0)
(0.114771 -9.42068e-05 0)
(0.114827 -2.06689e-05 0)
(0.114838 6.73943e-05 0)
(0.114799 0.000173051 0)
(0.114702 0.000300217 0)
(0.114538 0.000453956 0)
(0.114297 0.000640913 0)
(0.113965 0.000869943 0)
(0.113527 0.00115303 0)
(0.112964 0.00150667 0)
(0.112253 0.00195388 0)
(0.111365 0.00252734 0)
(0.110268 0.00327393 0)
(0.108923 0.0042614 0)
(0.107291 0.00558721 0)
(0.105343 0.00738795 0)
(0.103076 0.00984299 0)
(0.100571 0.0131554 0)
(0.0981467 0.0174174 0)
(0.0966988 0.0220006 0)
(0.100013 -3.15967e-05 0)
(0.100073 -5.93108e-05 0)
(0.100171 -8.34223e-05 0)
(0.100296 -0.00010422 0)
(0.100444 -0.000122284 0)
(0.10061 -0.000137889 0)
(0.100791 -0.000151144 0)
(0.100983 -0.000162108 0)
(0.101184 -0.000170838 0)
(0.10139 -0.000177448 0)
(0.101598 -0.000182152 0)
(0.101806 -0.000185282 0)
(0.102014 -0.000187282 0)
(0.102219 -0.000188671 0)
(0.102421 -0.00019 0)
(0.102621 -0.000191793 0)
(0.102819 -0.000194504 0)
(0.103017 -0.000198481 0)
(0.103215 -0.000203949 0)
(0.103416 -0.000211015 0)
(0.10362 -0.000219676 0)
(0.103828 -0.000229848 0)
(0.104043 -0.000241387 0)
(0.104263 -0.000254114 0)
(0.104491 -0.000267839 0)
(0.104727 -0.000282376 0)
(0.10497 -0.00029755 0)
(0.105221 -0.000313209 0)
(0.10548 -0.000329216 0)
(0.105746 -0.000345457 0)
(0.10602 -0.000361831 0)
(0.106301 -0.000378251 0)
(0.106588 -0.000394636 0)
(0.106881 -0.00041091 0)
(0.107181 -0.000426998 0)
(0.107485 -0.000442821 0)
(0.107794 -0.000458298 0)
(0.108107 -0.000473341 0)
(0.108424 -0.000487853 0)
(0.108744 -0.000501729 0)
(0.109066 -0.000514851 0)
(0.109389 -0.000527091 0)
(0.109713 -0.000538305 0)
(0.110037 -0.000548334 0)
(0.110361 -0.000557 0)
(0.110682 -0.000564106 0)
(0.111001 -0.000569429 0)
(0.111316 -0.00057272 0)
(0.111626 -0.000573697 0)
(0.111931 -0.000572042 0)
(0.112227 -0.00056739 0)
(0.112516 -0.000559329 0)
(0.112794 -0.000547382 0)
(0.11306 -0.000531 0)
(0.113313 -0.000509545 0)
(0.11355 -0.000482276 0)
(0.11377 -0.000448319 0)
(0.11397 -0.000406644 0)
(0.114148 -0.000356028 0)
(0.114299 -0.000295005 0)
(0.114423 -0.00022181 0)
(0.114513 -0.000134294 0)
(0.114568 -2.98261e-05 0)
(0.11458 9.48655e-05 0)
(0.114546 0.000243886 0)
(0.114458 0.000422422 0)
(0.114311 0.000637086 0)
(0.114094 0.000896415 0)
(0.113799 0.00121155 0)
(0.113414 0.00159718 0)
(0.112929 0.00207292 0)
(0.112329 0.00266511 0)
(0.111601 0.00340937 0)
(0.110734 0.00435379 0)
(0.109724 0.00556266 0)
(0.108578 0.00711935 0)
(0.107332 0.00912445 0)
(0.10607 0.0116799 0)
(0.104955 0.0148392 0)
(0.104264 0.0184715 0)
(0.104364 0.0219341 0)
(0.100012 -4.14728e-05 0)
(0.100071 -7.85359e-05 0)
(0.100168 -0.000110614 0)
(0.100292 -0.000138315 0)
(0.100438 -0.000162366 0)
(0.100603 -0.000183135 0)
(0.100783 -0.000200773 0)
(0.100975 -0.00021536 0)
(0.101174 -0.000226973 0)
(0.101378 -0.000235763 0)
(0.101585 -0.000242011 0)
(0.101793 -0.000246158 0)
(0.101999 -0.000248789 0)
(0.102203 -0.000250593 0)
(0.102404 -0.000252298 0)
(0.102603 -0.000254601 0)
(0.1028 -0.000258107 0)
(0.102996 -0.000263277 0)
(0.103192 -0.000270414 0)
(0.10339 -0.000279663 0)
(0.103592 -0.000291022 0)
(0.103798 -0.00030438 0)
(0.104009 -0.000319548 0)
(0.104226 -0.000336291 0)
(0.104451 -0.000354356 0)
(0.104682 -0.000373494 0)
(0.104921 -0.000393476 0)
(0.105168 -0.000414094 0)
(0.105422 -0.00043517 0)
(0.105683 -0.000456548 0)
(0.105952 -0.000478096 0)
(0.106227 -0.000499693 0)
(0.106508 -0.000521234 0)
(0.106795 -0.000542616 0)
(0.107088 -0.000563738 0)
(0.107385 -0.000584496 0)
(0.107687 -0.000604781 0)
(0.107993 -0.000624476 0)
(0.108302 -0.000643452 0)
(0.108614 -0.00066157 0)
(0.108928 -0.000678674 0)
(0.109242 -0.000694592 0)
(0.109558 -0.000709138 0)
(0.109873 -0.000722099 0)
(0.110187 -0.000733241 0)
(0.110499 -0.000742305 0)
(0.110808 -0.000748997 0)
(0.111113 -0.000752992 0)
(0.111413 -0.000753919 0)
(0.111706 -0.000751363 0)
(0.111993 -0.00074485 0)
(0.11227 -0.000733842 0)
(0.112538 -0.000717721 0)
(0.112794 -0.000695777 0)
(0.113036 -0.00066719 0)
(0.113263 -0.000631005 0)
(0.113474 -0.000586109 0)
(0.113664 -0.00053119 0)
(0.113834 -0.0004647 0)
(0.113979 -0.000384795 0)
(0.114097 -0.000289269 0)
(0.114184 -0.00017546 0)
(0.114238 -4.0135e-05 0)
(0.114253 0.000120665 0)
(0.114227 0.00031184 0)
(0.114153 0.000539485 0)
(0.114028 0.000811236 0)
(0.113844 0.00113673 0)
(0.113597 0.0015282 0)
(0.11328 0.00200128 0)
(0.112889 0.00257601 0)
(0.11242 0.00327808 0)
(0.111873 0.00414019 0)
(0.111253 0.00520343 0)
(0.110579 0.00651771 0)
(0.109884 0.00813985 0)
(0.10923 0.0101256 0)
(0.108716 0.0125088 0)
(0.108484 0.0152565 0)
(0.108709 0.0181863 0)
(0.109512 0.020845 0)
(0.100011 -5.17531e-05 0)
(0.10007 -9.87894e-05 0)
(0.100165 -0.000139355 0)
(0.100287 -0.000174438 0)
(0.100432 -0.00020489 0)
(0.100596 -0.000231177 0)
(0.100774 -0.000253499 0)
(0.100964 -0.000271959 0)
(0.101162 -0.000286655 0)
(0.101365 -0.000297776 0)
(0.101571 -0.000305676 0)
(0.101777 -0.000310905 0)
(0.101981 -0.000314197 0)
(0.102184 -0.000316419 0)
(0.102384 -0.000318485 0)
(0.102581 -0.000321277 0)
(0.102776 -0.000325554 0)
(0.10297 -0.000331906 0)
(0.103164 -0.000340717 0)
(0.10336 -0.000352173 0)
(0.103558 -0.000366279 0)
(0.103761 -0.000382896 0)
(0.103969 -0.00040179 0)
(0.104182 -0.000422664 0)
(0.104402 -0.000445202 0)
(0.104629 -0.00046909 0)
(0.104863 -0.000494036 0)
(0.105104 -0.000519778 0)
(0.105352 -0.000546088 0)
(0.105607 -0.00057277 0)
(0.105869 -0.00059965 0)
(0.106137 -0.00062658 0)
(0.106411 -0.000653421 0)
(0.106691 -0.000680044 0)
(0.106975 -0.00070632 0)
(0.107265 -0.000732116 0)
(0.107558 -0.000757295 0)
(0.107855 -0.000781708 0)
(0.108155 -0.000805192 0)
(0.108457 -0.000827572 0)
(0.10876 -0.000848652 0)
(0.109065 -0.000868218 0)
(0.109369 -0.000886033 0)
(0.109673 -0.000901833 0)
(0.109976 -0.000915325 0)
(0.110276 -0.000926186 0)
(0.110573 -0.000934052 0)
(0.110866 -0.000938517 0)
(0.111154 -0.000939124 0)
(0.111435 -0.000935359 0)
(0.111709 -0.000926641 0)
(0.111974 -0.000912308 0)
(0.112228 -0.000891606 0)
(0.112472 -0.000863673 0)
(0.112702 -0.000827513 0)
(0.112918 -0.000781977 0)
(0.113117 -0.000725729 0)
(0.113298 -0.00065721 0)
(0.113458 -0.000574587 0)
(0.113596 -0.000475699 0)
(0.113709 -0.000357981 0)
(0.113793 -0.000218371 0)
(0.113848 -5.31986e-05 0)
(0.113869 0.000141952 0)
(0.113854 0.000372449 0)
(0.113799 0.000644848 0)
(0.113701 0.000967167 0)
(0.113558 0.00134925 0)
(0.113368 0.00180317 0)
(0.113129 0.0023438 0)
(0.112842 0.00298926 0)
(0.112512 0.00376152 0)
(0.112147 0.00468666 0)
(0.111764 0.00579463 0)
(0.11139 0.00711773 0)
(0.111068 0.0086866 0)
(0.110859 0.0105215 0)
(0.110846 0.0126159 0)
(0.111125 0.0149084 0)
(0.111787 0.0172451 0)
(0.112857 0.0193462 0)
(0.10001 -6.24537e-05 0)
(0.100068 -0.000120074 0)
(0.100161 -0.000169665 0)
(0.100282 -0.00021262 0)
(0.100425 -0.000249908 0)
(0.100587 -0.000282088 0)
(0.100764 -0.000309415 0)
(0.100951 -0.000332015 0)
(0.101148 -0.000350011 0)
(0.101349 -0.000363632 0)
(0.101553 -0.000373303 0)
(0.101758 -0.000379689 0)
(0.101961 -0.000383679 0)
(0.102162 -0.000386321 0)
(0.10236 -0.000388729 0)
(0.102555 -0.000391972 0)
(0.102748 -0.000396981 0)
(0.10294 -0.000404476 0)
(0.103132 -0.000414935 0)
(0.103325 -0.000428589 0)
(0.10352 -0.000445451 0)
(0.103719 -0.000465361 0)
(0.103922 -0.000488034 0)
(0.104131 -0.000513116 0)
(0.104346 -0.00054022 0)
(0.104567 -0.000568963 0)
(0.104795 -0.00059899 0)
(0.10503 -0.000629978 0)
(0.105271 -0.000661646 0)
(0.105519 -0.000693751 0)
(0.105773 -0.000726082 0)
(0.106033 -0.000758452 0)
(0.106299 -0.000790691 0)
(0.106569 -0.000822637 0)
(0.106845 -0.000854132 0)
(0.107125 -0.000885014 0)
(0.107408 -0.000915113 0)
(0.107694 -0.000944247 0)
(0.107983 -0.00097222 0)
(0.108274 -0.000998815 0)
(0.108566 -0.0010238 0)
(0.108858 -0.00104691 0)
(0.10915 -0.00106786 0)
(0.109441 -0.00108633 0)
(0.109731 -0.00110197 0)
(0.110018 -0.0011144 0)
(0.110301 -0.00112317 0)
(0.11058 -0.00112781 0)
(0.110853 -0.00112777 0)
(0.11112 -0.00112244 0)
(0.11138 -0.00111114 0)
(0.111631 -0.00109309 0)
(0.111872 -0.00106741 0)
(0.112101 -0.00103309 0)
(0.112318 -0.00098899 0)
(0.112521 -0.000933789 0)
(0.112708 -0.000865962 0)
(0.112878 -0.000783746 0)
(0.11303 -0.000685091 0)
(0.11316 -0.000567598 0)
(0.113268 -0.000428458 0)
(0.113352 -0.000264362 0)
(0.113409 -7.14063e-05 0)
(0.113438 0.000155006 0)
(0.113437 0.000420344 0)
(0.113405 0.00073113 0)
(0.11334 0.00109512 0)
(0.113243 0.00152151 0)
(0.113114 0.00202116 0)
(0.112957 0.00260681 0)
(0.112776 0.00329313 0)
(0.112581 0.00409674 0)
(0.112384 0.00503569 0)
(0.112208 0.00612845 0)
(0.11208 0.00739167 0)
(0.11204 0.00883628 0)
(0.112136 0.0104608 0)
(0.112428 0.0122413 0)
(0.112971 0.0141176 0)
(0.113808 0.01598 0)
(0.114927 0.0176657 0)
(0.100009 -7.35911e-05 0)
(0.100066 -0.000142396 0)
(0.100158 -0.00020156 0)
(0.100276 -0.000252889 0)
(0.100417 -0.000297463 0)
(0.100577 -0.000335931 0)
(0.100752 -0.000368601 0)
(0.100937 -0.000395629 0)
(0.101131 -0.00041716 0)
(0.101331 -0.000433465 0)
(0.101533 -0.000445043 0)
(0.101736 -0.000452676 0)
(0.101937 -0.000457407 0)
(0.102136 -0.000460476 0)
(0.102333 -0.0004632 0)
(0.102526 -0.000466847 0)
(0.102717 -0.000472526 0)
(0.102906 -0.0004811 0)
(0.103095 -0.000493145 0)
(0.103285 -0.000508948 0)
(0.103476 -0.000528534 0)
(0.103671 -0.000551722 0)
(0.10387 -0.000578183 0)
(0.104073 -0.000607498 0)
(0.104282 -0.000639211 0)
(0.104497 -0.000672869 0)
(0.104718 -0.000708043 0)
(0.104946 -0.000744351 0)
(0.10518 -0.000781452 0)
(0.105419 -0.000819055 0)
(0.105665 -0.000856902 0)
(0.105916 -0.000894767 0)
(0.106172 -0.000932445 0)
(0.106433 -0.00096974 0)
(0.106698 -0.00100646 0)
(0.106966 -0.00104242 0)
(0.107238 -0.0010774 0)
(0.107513 -0.00111119 0)
(0.107789 -0.00114356 0)
(0.108067 -0.00117425 0)
(0.108346 -0.00120299 0)
(0.108625 -0.00122947 0)
(0.108903 -0.00125334 0)
(0.10918 -0.00127425 0)
(0.109455 -0.00129177 0)
(0.109727 -0.00130547 0)
(0.109995 -0.00131482 0)
(0.110259 -0.00131928 0)
(0.110516 -0.00131822 0)
(0.110768 -0.00131094 0)
(0.111012 -0.00129667 0)
(0.111247 -0.00127451 0)
(0.111473 -0.00124349 0)
(0.111687 -0.00120248 0)
(0.11189 -0.00115019 0)
(0.11208 -0.00108519 0)
(0.112255 -0.0010058 0)
(0.112414 -0.000910127 0)
(0.112556 -0.000795973 0)
(0.11268 -0.000660813 0)
(0.112784 -0.000501727 0)
(0.112868 -0.000315337 0)
(0.11293 -9.77331e-05 0)
(0.112969 0.000155577 0)
(0.112985 0.000449796 0)
(0.112978 0.000790956 0)
(0.11295 0.00118599 0)
(0.112901 0.0016428 0)
(0.112835 0.00217027 0)
(0.112757 0.00277825 0)
(0.112676 0.00347734 0)
(0.112602 0.00427848 0)
(0.11255 0.00519224 0)
(0.11254 0.0062275 0)
(0.112597 0.00738956 0)
(0.112753 0.00867717 0)
(0.113041 0.0100785 0)
(0.113499 0.0115662 0)
(0.114155 0.0130918 0)
(0.115026 0.0145832 0)
(0.116093 0.0159479 0)
(0.100008 -8.51817e-05 0)
(0.100064 -0.000165761 0)
(0.100154 -0.000235057 0)
(0.10027 -0.000295267 0)
(0.100409 -0.000347591 0)
(0.100566 -0.000392754 0)
(0.100738 -0.000431123 0)
(0.100922 -0.000462883 0)
(0.101113 -0.000488205 0)
(0.10131 -0.0005074 0)
(0.10151 -0.00052104 0)
(0.101711 -0.000530023 0)
(0.10191 -0.000535553 0)
(0.102107 -0.000539061 0)
(0.102302 -0.000542072 0)
(0.102493 -0.000546063 0)
(0.102682 -0.00055233 0)
(0.102868 -0.000561888 0)
(0.103054 -0.000575421 0)
(0.10324 -0.000593279 0)
(0.103428 -0.000615508 0)
(0.103618 -0.000641909 0)
(0.103811 -0.00067211 0)
(0.104009 -0.00070563 0)
(0.104212 -0.000741941 0)
(0.10442 -0.000780515 0)
(0.104634 -0.000820851 0)
(0.104853 -0.000862497 0)
(0.105078 -0.000905052 0)
(0.105309 -0.000948167 0)
(0.105545 -0.000991539 0)
(0.105786 -0.0010349 0)
(0.106031 -0.001078 0)
(0.106281 -0.00112061 0)
(0.106534 -0.0011625 0)
(0.106791 -0.00120344 0)
(0.10705 -0.0012432 0)
(0.107312 -0.00128152 0)
(0.107575 -0.00131812 0)
(0.107839 -0.00135273 0)
(0.108103 -0.001385 0)
(0.108367 -0.00141459 0)
(0.108631 -0.00144111 0)
(0.108892 -0.00146414 0)
(0.109151 -0.00148321 0)
(0.109407 -0.00149781 0)
(0.109658 -0.00150737 0)
(0.109905 -0.00151126 0)
(0.110146 -0.00150878 0)
(0.110381 -0.00149916 0)
(0.110608 -0.00148153 0)
(0.110827 -0.00145494 0)
(0.111037 -0.00141829 0)
(0.111236 -0.00137038 0)
(0.111424 -0.00130984 0)
(0.1116 -0.00123512 0)
(0.111763 -0.0011445 0)
(0.111911 -0.00103599 0)
(0.112045 -0.000907353 0)
(0.112163 -0.00075606 0)
(0.112265 -0.000579224 0)
(0.11235 -0.000373578 0)
(0.112418 -0.000135429 0)
(0.112469 0.000139348 0)
(0.112504 0.000455373 0)
(0.112524 0.000817829 0)
(0.112532 0.00123244 0)
(0.11253 0.0017054 0)
(0.112524 0.00224331 0)
(0.112519 0.00285294 0)
(0.112525 0.00354094 0)
(0.112552 0.00431328 0)
(0.112615 0.00517455 0)
(0.11273 0.0061269 0)
(0.112916 0.00716866 0)
(0.113196 0.00829257 0)
(0.113592 0.0094838 0)
(0.114123 0.0107179 0)
(0.114806 0.0119597 0)
(0.115641 0.0131633 0)
(0.116614 0.0142768 0)
(0.100007 -9.72388e-05 0)
(0.100062 -0.000190172 0)
(0.10015 -0.000270161 0)
(0.100264 -0.000339765 0)
(0.1004 -0.000400308 0)
(0.100554 -0.000452589 0)
(0.100724 -0.000497028 0)
(0.100904 -0.000533842 0)
(0.101093 -0.000563228 0)
(0.101287 -0.000585537 0)
(0.101485 -0.000601415 0)
(0.101683 -0.000611871 0)
(0.10188 -0.000618271 0)
(0.102075 -0.000622235 0)
(0.102267 -0.000625505 0)
(0.102456 -0.000629771 0)
(0.102642 -0.000636523 0)
(0.102826 -0.000646939 0)
(0.103008 -0.000661823 0)
(0.10319 -0.000681595 0)
(0.103374 -0.000706331 0)
(0.103559 -0.000735823 0)
(0.103747 -0.000769657 0)
(0.103938 -0.000807292 0)
(0.104134 -0.000848127 0)
(0.104335 -0.000891558 0)
(0.10454 -0.000937006 0)
(0.104751 -0.000983946 0)
(0.104967 -0.00103191 0)
(0.105187 -0.0010805 0)
(0.105413 -0.00112934 0)
(0.105643 -0.00117812 0)
(0.105877 -0.00122656 0)
(0.106115 -0.00127438 0)
(0.106355 -0.00132131 0)
(0.106599 -0.00136709 0)
(0.106845 -0.00141145 0)
(0.107092 -0.00145409 0)
(0.107341 -0.0014947 0)
(0.10759 -0.00153294 0)
(0.107839 -0.00156845 0)
(0.108087 -0.00160084 0)
(0.108334 -0.00162966 0)
(0.108579 -0.00165444 0)
(0.108821 -0.00167467 0)
(0.109059 -0.00168977 0)
(0.109293 -0.00169911 0)
(0.109523 -0.00170202 0)
(0.109746 -0.00169772 0)
(0.109964 -0.00168538 0)
(0.110174 -0.00166407 0)
(0.110376 -0.00163276 0)
(0.110569 -0.00159032 0)
(0.110752 -0.00153547 0)
(0.110926 -0.00146681 0)
(0.111088 -0.00138275 0)
(0.111239 -0.00128154 0)
(0.111378 -0.00116124 0)
(0.111504 -0.00101964 0)
(0.111617 -0.000854328 0)
(0.111717 -0.000662596 0)
(0.111805 -0.000441453 0)
(0.11188 -0.000187616 0)
(0.111944 0.000102472 0)
(0.111998 0.000432622 0)
(0.112044 0.000806945 0)
(0.112086 0.00122976 0)
(0.112128 0.00170546 0)
(0.112174 0.00223838 0)
(0.112231 0.00283248 0)
(0.112308 0.0034911 0)
(0.112414 0.00421642 0)
(0.112561 0.00500892 0)
(0.112762 0.00586667 0)
(0.11303 0.00678453 0)
(0.113379 0.00775328 0)
(0.113823 0.00875889 0)
(0.114373 0.00978199 0)
(0.115033 0.010798 0)
(0.115801 0.0117787 0)
(0.116666 0.0126945 0)
(0.100006 -0.000109772 0)
(0.10006 -0.000215625 0)
(0.100146 -0.000306867 0)
(0.100257 -0.000386379 0)
(0.10039 -0.000455615 0)
(0.100542 -0.000515441 0)
(0.100708 -0.000566332 0)
(0.100885 -0.000608536 0)
(0.101071 -0.000642278 0)
(0.101262 -0.000667946 0)
(0.101456 -0.000686254 0)
(0.101652 -0.000698326 0)
(0.101846 -0.000705678 0)
(0.102038 -0.000710128 0)
(0.102228 -0.000713628 0)
(0.102414 -0.000718089 0)
(0.102597 -0.000725203 0)
(0.102778 -0.000736321 0)
(0.102957 -0.000752377 0)
(0.103135 -0.000773875 0)
(0.103313 -0.000800928 0)
(0.103493 -0.000833326 0)
(0.103675 -0.00087062 0)
(0.10386 -0.000912212 0)
(0.104048 -0.00095743 0)
(0.104241 -0.00100559 0)
(0.104438 -0.00105603 0)
(0.104639 -0.00110815 0)
(0.104845 -0.00116142 0)
(0.105055 -0.00121535 0)
(0.105269 -0.00126954 0)
(0.105487 -0.00132362 0)
(0.105709 -0.00137724 0)
(0.105934 -0.00143009 0)
(0.106161 -0.00148186 0)
(0.106391 -0.00153226 0)
(0.106622 -0.00158096 0)
(0.106855 -0.00162764 0)
(0.107088 -0.00167194 0)
(0.107321 -0.00171349 0)
(0.107553 -0.00175188 0)
(0.107785 -0.00178667 0)
(0.108014 -0.00181738 0)
(0.108241 -0.00184349 0)
(0.108466 -0.00186443 0)
(0.108686 -0.00187959 0)
(0.108902 -0.00188828 0)
(0.109114 -0.00188978 0)
(0.109319 -0.00188328 0)
(0.109518 -0.00186788 0)
(0.109711 -0.00184263 0)
(0.109896 -0.00180646 0)
(0.110072 -0.0017582 0)
(0.11024 -0.00169656 0)
(0.110399 -0.00162015 0)
(0.110548 -0.00152741 0)
(0.110688 -0.00141664 0)
(0.110817 -0.00128598 0)
(0.110936 -0.0011334 0)
(0.111045 -0.000956686 0)
(0.111144 -0.000753434 0)
(0.111235 -0.000521068 0)
(0.111318 -0.000256845 0)
(0.111394 4.21047e-05 0)
(0.111466 0.000378664 0)
(0.111537 0.000755793 0)
(0.111609 0.00117641 0)
(0.111687 0.00164324 0)
(0.111777 0.00215862 0)
(0.111883 0.00272428 0)
(0.112014 0.00334108 0)
(0.112176 0.00400867 0)
(0.11238 0.00472508 0)
(0.112633 0.0054864 0)
(0.112945 0.00628633 0)
(0.113325 0.00711595 0)
(0.113779 0.00796349 0)
(0.114312 0.00881453 0)
(0.114925 0.00965249 0)
(0.115615 0.0104598 0)
(0.116373 0.0112196 0)
(0.100005 -0.000122784 0)
(0.100058 -0.000242106 0)
(0.100141 -0.000345157 0)
(0.10025 -0.000435085 0)
(0.10038 -0.000513485 0)
(0.100528 -0.000581287 0)
(0.10069 -0.000639016 0)
(0.100864 -0.000686956 0)
(0.101046 -0.000725356 0)
(0.101234 -0.000754641 0)
(0.101424 -0.000775592 0)
(0.101617 -0.000789436 0)
(0.101808 -0.00079784 0)
(0.101997 -0.00080281 0)
(0.102184 -0.000806513 0)
(0.102367 -0.00081108 0)
(0.102547 -0.000818415 0)
(0.102724 -0.00083005 0)
(0.102899 -0.000847058 0)
(0.103072 -0.000870042 0)
(0.103246 -0.000899164 0)
(0.10342 -0.000934219 0)
(0.103595 -0.000974733 0)
(0.103773 -0.00102005 0)
(0.103953 -0.00106944 0)
(0.104137 -0.00112212 0)
(0.104325 -0.00117736 0)
(0.104516 -0.00123447 0)
(0.104711 -0.00129285 0)
(0.10491 -0.00135195 0)
(0.105112 -0.00141128 0)
(0.105318 -0.00147043 0)
(0.105526 -0.001529 0)
(0.105737 -0.00158663 0)
(0.105951 -0.00164297 0)
(0.106165 -0.00169768 0)
(0.106381 -0.0017504 0)
(0.106598 -0.00180076 0)
(0.106815 -0.00184837 0)
(0.107031 -0.00189281 0)
(0.107246 -0.00193365 0)
(0.10746 -0.00197039 0)
(0.107672 -0.00200253 0)
(0.107881 -0.0020295 0)
(0.108087 -0.00205069 0)
(0.108289 -0.00206544 0)
(0.108486 -0.00207306 0)
(0.108679 -0.00207275 0)
(0.108866 -0.0020637 0)
(0.109047 -0.00204499 0)
(0.109222 -0.00201563 0)
(0.109389 -0.00197457 0)
(0.10955 -0.00192063 0)
(0.109702 -0.00185258 0)
(0.109847 -0.00176905 0)
(0.109983 -0.00166857 0)
(0.110112 -0.00154958 0)
(0.110232 -0.00141038 0)
(0.110345 -0.00124917 0)
(0.11045 -0.00106403 0)
(0.110549 -0.000852963 0)
(0.110643 -0.000613882 0)
(0.110732 -0.000344658 0)
(0.11082 -4.31615e-05 0)
(0.110908 0.000292599 0)
(0.110998 0.000664461 0)
(0.111095 0.0010741 0)
(0.111202 0.00152282 0)
(0.111324 0.00201143 0)
(0.111466 0.00254005 0)
(0.111634 0.00310792 0)
(0.111832 0.00371321 0)
(0.112069 0.00435281 0)
(0.112348 0.00502218 0)
(0.112677 0.00571521 0)
(0.11306 0.00642421 0)
(0.1135 0.00713999 0)
(0.113998 0.00785217 0)
(0.114554 0.00854969 0)
(0.115164 0.00922156 0)
(0.115821 0.00985811 0)
(0.100004 -0.000136269 0)
(0.100056 -0.00026959 0)
(0.100137 -0.000384987 0)
(0.100242 -0.000485831 0)
(0.100369 -0.000573856 0)
(0.100513 -0.000650058 0)
(0.100671 -0.000715012 0)
(0.100841 -0.000769035 0)
(0.101018 -0.000812402 0)
(0.101202 -0.000845573 0)
(0.101389 -0.000869387 0)
(0.101577 -0.000885171 0)
(0.101765 -0.000894735 0)
(0.101951 -0.000900266 0)
(0.102133 -0.000904143 0)
(0.102313 -0.00090872 0)
(0.102489 -0.000916116 0)
(0.102662 -0.000928051 0)
(0.102833 -0.000945756 0)
(0.103001 -0.000969939 0)
(0.103169 -0.00100082 0)
(0.103337 -0.00103822 0)
(0.103505 -0.00108164 0)
(0.103675 -0.00113039 0)
(0.103847 -0.00118364 0)
(0.104022 -0.00124056 0)
(0.1042 -0.00130032 0)
(0.10438 -0.00136216 0)
(0.104564 -0.00142538 0)
(0.104751 -0.00148936 0)
(0.104941 -0.00155355 0)
(0.105133 -0.00161748 0)
(0.105328 -0.00168068 0)
(0.105524 -0.00174276 0)
(0.105723 -0.00180331 0)
(0.105922 -0.00186194 0)
(0.106122 -0.00191827 0)
(0.106322 -0.00197188 0)
(0.106522 -0.00202234 0)
(0.10672 -0.00206921 0)
(0.106918 -0.002112 0)
(0.107113 -0.0021502 0)
(0.107307 -0.00218326 0)
(0.107497 -0.00221058 0)
(0.107684 -0.00223153 0)
(0.107867 -0.00224543 0)
(0.108046 -0.00225154 0)
(0.108219 -0.00224908 0)
(0.108388 -0.0022372 0)
(0.108551 -0.00221499 0)
(0.108708 -0.00218149 0)
(0.108858 -0.00213566 0)
(0.109002 -0.00207639 0)
(0.10914 -0.00200249 0)
(0.109271 -0.0019127 0)
(0.109395 -0.00180571 0)
(0.109513 -0.00168012 0)
(0.109625 -0.00153445 0)
(0.109731 -0.0013672 0)
(0.109833 -0.00117681 0)
(0.109931 -0.000961724 0)
(0.110027 -0.000720375 0)
(0.110122 -0.000451262 0)
(0.110218 -0.000152976 0)
(0.110318 0.000175698 0)
(0.110424 0.000535637 0)
(0.110539 0.000927486 0)
(0.110667 0.00135149 0)
(0.110811 0.00180738 0)
(0.110975 0.00229424 0)
(0.111164 0.00281041 0)
(0.111381 0.0033534 0)
(0.111632 0.00391979 0)
(0.111918 0.00450521 0)
(0.112244 0.00510433 0)
(0.112612 0.00571095 0)
(0.113023 0.0063182 0)
(0.113477 0.00691875 0)
(0.113972 0.00750521 0)
(0.114505 0.00807068 0)
(0.115072 0.0086095 0)
(0.100003 -0.000150212 0)
(0.100053 -0.000298033 0)
(0.100132 -0.000426291 0)
(0.100234 -0.00053853 0)
(0.100356 -0.000636625 0)
(0.100496 -0.000721639 0)
(0.10065 -0.000794191 0)
(0.100815 -0.000854637 0)
(0.100988 -0.000903276 0)
(0.101167 -0.000940597 0)
(0.101349 -0.000967497 0)
(0.101533 -0.000985391 0)
(0.101716 -0.000996225 0)
(0.101898 -0.00100236 0)
(0.102076 -0.00100638 0)
(0.102252 -0.00101086 0)
(0.102424 -0.00101814 0)
(0.102592 -0.00103013 0)
(0.102757 -0.00104824 0)
(0.10292 -0.00107329 0)
(0.103082 -0.00110557 0)
(0.103243 -0.00114494 0)
(0.103404 -0.00119089 0)
(0.103566 -0.00124267 0)
(0.103729 -0.00129942 0)
(0.103894 -0.00136021 0)
(0.104061 -0.00142413 0)
(0.10423 -0.00149033 0)
(0.104402 -0.00155802 0)
(0.104576 -0.00162652 0)
(0.104753 -0.0016952 0)
(0.104931 -0.00176351 0)
(0.105111 -0.00183095 0)
(0.105293 -0.00189704 0)
(0.105475 -0.00196136 0)
(0.105658 -0.00202345 0)
(0.105842 -0.0020829 0)
(0.106024 -0.00213925 0)
(0.106206 -0.00219205 0)
(0.106387 -0.0022408 0)
(0.106566 -0.00228501 0)
(0.106743 -0.00232412 0)
(0.106918 -0.00235756 0)
(0.107089 -0.00238472 0)
(0.107256 -0.00240494 0)
(0.10742 -0.00241754 0)
(0.10758 -0.00242176 0)
(0.107735 -0.00241684 0)
(0.107885 -0.00240194 0)
(0.108029 -0.00237618 0)
(0.108169 -0.00233862 0)
(0.108303 -0.0022883 0)
(0.108431 -0.00222419 0)
(0.108554 -0.00214522 0)
(0.108671 -0.00205026 0)
(0.108784 -0.00193817 0)
(0.108891 -0.00180777 0)
(0.108995 -0.00165786 0)
(0.109095 -0.00148726 0)
(0.109193 -0.00129479 0)
(0.109289 -0.00107932 0)
(0.109386 -0.000839815 0)
(0.109484 -0.000575345 0)
(0.109586 -0.000285137 0)
(0.109694 3.13927e-05 0)
(0.10981 0.000374391 0)
(0.109936 0.000743719 0)
(0.110075 0.0011389 0)
(0.110231 0.00155898 0)
(0.110407 0.00200253 0)
(0.110604 0.00246748 0)
(0.110826 0.00295122 0)
(0.111076 0.00345049 0)
(0.111355 0.00396147 0)
(0.111665 0.00447979 0)
(0.112008 0.00500067 0)
(0.112382 0.00551905 0)
(0.112788 0.00602983 0)
(0.113223 0.00652805 0)
(0.113685 0.00700933 0)
(0.114171 0.00747031 0)
(0.100001 -0.000164584 0)
(0.100051 -0.000327371 0)
(0.100127 -0.000468968 0)
(0.100225 -0.000593052 0)
(0.100343 -0.000701635 0)
(0.100479 -0.000795845 0)
(0.100627 -0.00087635 0)
(0.100787 -0.000943539 0)
(0.100955 -0.000997736 0)
(0.101128 -0.00103946 0)
(0.101305 -0.00106966 0)
(0.101483 -0.00108982 0)
(0.101662 -0.00110203 0)
(0.101838 -0.0011088 0)
(0.102012 -0.00111292 0)
(0.102182 -0.00111718 0)
(0.102348 -0.00112415 0)
(0.102511 -0.00113594 0)
(0.102671 -0.00115412 0)
(0.102828 -0.00117965 0)
(0.102982 -0.00121293 0)
(0.103136 -0.00125383 0)
(0.103289 -0.00130185 0)