/*--------------------------------*- C++ -*----------------------------------*\
| =========                 |                                                 |
| \\      /  F ield         | OpenFOAM: The Open Source CFD Toolbox           |
|  \\    /   O peration     | Version:  2106                                  |
|   \\  /    A nd           | Website:  www.openfoam.com                      |
|    \\/     M anipulation  |                                                 |
\*---------------------------------------------------------------------------*/
FoamFile
{
    version     2.0;
    format      ascii;
    arch        "LSB;label=32;scalar=64";
    class       surfaceScalarField;
    location    "4.4";
    object      phi;
}
// * * * * * * * * * * * * * * * * * * * * * * * * * * * * * * * * * * * * * //

dimensions      [1 0 -1 0 0 0 0];

oriented        oriented;

internalField   nonuniform List<scalar> 
23692
(
9.31682e-05
-8.87667e-08
9.33288e-05
-1.60566e-07
9.35532e-05
-2.24312e-07
9.38336e-05
-2.80261e-07
9.41639e-05
-3.30235e-07
9.45394e-05
-3.75362e-07
9.4956e-05
-4.16385e-07
9.54101e-05
-4.53899e-07
9.58987e-05
-4.88369e-07
9.64191e-05
-5.20158e-07
9.69689e-05
-5.49562e-07
9.7546e-05
-5.76827e-07
9.81485e-05
-6.02156e-07
9.87745e-05
-6.25711e-07
9.94225e-05
-6.47637e-07
0.000100091
-6.6805e-07
0.000100778
-6.8705e-07
0.000101483
-7.04721e-07
0.000102205
-7.21133e-07
0.000102942
-7.36349e-07
0.000103693
-7.50418e-07
0.000104456
-7.63381e-07
0.000105232
-7.75277e-07
0.000106019
-7.86132e-07
0.000106815
-7.95977e-07
0.00010762
-8.04829e-07
0.000108433
-8.12707e-07
0.000109253
-8.19624e-07
0.000110079
-8.25591e-07
0.000110911
-8.30618e-07
0.000111746
-8.3471e-07
0.000112584
-8.37872e-07
0.000113425
-8.40107e-07
0.000114266
-8.41416e-07
0.000115109
-8.41798e-07
0.00011595
-8.41247e-07
0.00011679
-8.39763e-07
0.000117628
-8.37334e-07
0.000118463
-8.33955e-07
0.000119292
-8.29608e-07
0.000120117
-8.24283e-07
0.000120935
-8.17956e-07
0.000121746
-8.10607e-07
0.000122549
-8.02206e-07
0.000123342
-7.9272e-07
0.000124125
-7.82108e-07
0.000124895
-7.70323e-07
0.000125653
-7.57308e-07
0.000126396
-7.42996e-07
0.000127124
-7.2731e-07
0.000127834
-7.10155e-07
0.000128526
-6.91422e-07
0.000129197
-6.70982e-07
0.000129846
-6.48682e-07
0.000130471
-6.24339e-07
0.000131069
-5.97736e-07
0.000131637
-5.68616e-07
0.000132174
-5.36666e-07
0.000132676
-5.0151e-07
0.000133139
-4.62691e-07
0.000133559
-4.19648e-07
0.000133931
-3.71687e-07
0.000134249
-3.17948e-07
0.000134506
-2.57345e-07
0.000134695
-1.88498e-07
0.000134805
-1.09631e-07
0.000134823
-1.84363e-08
0.000134735
8.82024e-08
0.000134521
2.14531e-07
0.000134155
3.66452e-07
0.000133602
5.52319e-07
0.000132818
7.84262e-07
0.000131738
1.08038e-06
0.00013027
1.46846e-06
0.000128277
1.99235e-06
0.000125554
2.7232e-06
0.000121775
3.77907e-06
0.000116414
5.36107e-06
0.000108578
7.83691e-06
9.66234e-05
1.19543e-05
1.98362e-05
7.67873e-05
9.96917e-05
-1.81424e-07
9.98626e-05
-3.31422e-07
0.000100102
-4.63577e-07
0.000100401
-5.79356e-07
0.000100754
-6.82816e-07
0.000101155
-7.76219e-07
0.0001016
-8.6112e-07
0.000102085
-9.38753e-07
0.000102607
-1.01008e-06
0.000103163
-1.07585e-06
0.00010375
-1.13669e-06
0.000104367
-1.19309e-06
0.00010501
-1.24548e-06
0.000105679
-1.2942e-06
0.000106371
-1.33955e-06
0.000107086
-1.38176e-06
0.00010782
-1.42104e-06
0.000108573
-1.45758e-06
0.000109344
-1.4915e-06
0.000110131
-1.52295e-06
0.000110933
-1.55202e-06
0.000111749
-1.5788e-06
0.000112577
-1.60338e-06
0.000113418
-1.6258e-06
0.000114268
-1.64612e-06
0.000115128
-1.66439e-06
0.000115997
-1.68064e-06
0.000116872
-1.6949e-06
0.000117754
-1.7072e-06
0.000118642
-1.71754e-06
0.000119534
-1.72596e-06
0.000120429
-1.73245e-06
0.000121326
-1.73701e-06
0.000122225
-1.73966e-06
0.000123124
-1.74039e-06
0.000124022
-1.7392e-06
0.000124919
-1.73606e-06
0.000125813
-1.73098e-06
0.000126703
-1.72392e-06
0.000127589
-1.71487e-06
0.000128469
-1.70379e-06
0.000129342
-1.69064e-06
0.000130207
-1.67538e-06
0.000131063
-1.65794e-06
0.000131909
-1.63826e-06
0.000132744
-1.61626e-06
0.000133566
-1.59183e-06
0.000134373
-1.56486e-06
0.000135166
-1.53522e-06
0.000135942
-1.50274e-06
0.000136699
-1.46724e-06
0.000137436
-1.42849e-06
0.000138152
-1.38622e-06
0.000138844
-1.34013e-06
0.00013951
-1.28985e-06
0.000140147
-1.23493e-06
0.000140753
-1.17484e-06
0.000141326
-1.10897e-06
0.000141861
-1.03654e-06
0.000142355
-9.56637e-07
0.000142804
-8.68132e-07
0.000143202
-7.69637e-07
0.000143544
-6.59429e-07
0.000143822
-5.35351e-07
0.000144028
-3.94669e-07
0.000144153
-2.3389e-07
0.000144183
-4.84879e-08
0.000144104
1.67519e-07
0.000143896
4.22221e-07
0.000143536
7.26701e-07
0.000142992
1.09636e-06
0.000142224
1.55305e-06
0.000141176
2.12843e-06
0.000139775
2.86923e-06
0.000137922
3.84573e-06
0.00013548
5.16478e-06
0.000132271
6.98836e-06
0.000128075
9.55742e-06
0.00012269
1.32218e-05
0.000116248
1.83964e-05
2.48516e-05
0.000111233
0.000106671
-2.77428e-07
0.000106852
-5.1237e-07
0.000107106
-7.17632e-07
0.000107425
-8.97567e-07
0.0001078
-1.05829e-06
0.000108228
-1.20334e-06
0.000108702
-1.33516e-06
0.000109219
-1.45568e-06
0.000109776
-1.56639e-06
0.000110368
-1.66846e-06
0.000110995
-1.76286e-06
0.000111653
-1.85037e-06
0.000112339
-1.93163e-06
0.000113052
-2.0072e-06
0.000113791
-2.07751e-06
0.000114552
-2.14296e-06
0.000115336
-2.20385e-06
0.000116139
-2.26047e-06
0.000116961
-2.31303e-06
0.0001178
-2.36174e-06
0.000118655
-2.40676e-06
0.000119525
-2.44822e-06
0.000120409
-2.48624e-06
0.000121304
-2.52092e-06
0.000122211
-2.55234e-06
0.000123128
-2.58057e-06
0.000124053
-2.60566e-06
0.000124986
-2.62766e-06
0.000125926
-2.6466e-06
0.000126872
-2.66252e-06
0.000127822
-2.67543e-06
0.000128775
-2.68534e-06
0.000129731
-2.69228e-06
0.000130688
-2.69624e-06
0.000131645
-2.69721e-06
0.000132602
-2.6952e-06
0.000133556
-2.69018e-06
0.000134508
-2.68212e-06
0.000135455
-2.67101e-06
0.000136398
-2.6568e-06
0.000137334
-2.63945e-06
0.000138263
-2.61888e-06
0.000139183
-2.59504e-06
0.000140093
-2.56783e-06
0.000140992
-2.53715e-06
0.000141879
-2.50286e-06
0.000142753
-2.46483e-06
0.000143611
-2.42288e-06
0.000144453
-2.37679e-06
0.000145277
-2.32632e-06
0.000146081
-2.27119e-06
0.000146864
-2.21106e-06
0.000147624
-2.14552e-06
0.000148358
-2.0741e-06
0.000149064
-1.99625e-06
0.000149741
-1.9113e-06
0.000150385
-1.81846e-06
0.000150993
-1.71678e-06
0.000151562
-1.60514e-06
0.000152088
-1.48215e-06
0.000152566
-1.34614e-06
0.000152992
-1.19507e-06
0.000153359
-1.02642e-06
0.000153661
-8.37039e-07
0.000153889
-6.22979e-07
0.000154035
-3.79236e-07
0.000154086
-9.94013e-08
0.000154029
2.24812e-07
0.000153847
6.04399e-07
0.000153519
1.05411e-06
0.000153022
1.5939e-06
0.000152324
2.25108e-06
0.000151389
3.06351e-06
0.000150174
4.08408e-06
0.000148633
5.38688e-06
0.000146724
7.07457e-06
0.000144428
9.28466e-06
0.000141799
1.21863e-05
0.000139076
1.5945e-05
0.000136914
2.05579e-05
2.52889e-05
0.000136477
0.000114139
-3.76557e-07
0.00011433
-7.02951e-07
0.000114599
-9.86326e-07
0.000114936
-1.23501e-06
0.000115335
-1.45704e-06
0.000115789
-1.65734e-06
0.000116294
-1.83933e-06
0.000116844
-2.00567e-06
0.000117436
-2.15843e-06
0.000118067
-2.29924e-06
0.000118734
-2.42944e-06
0.000119434
-2.55011e-06
0.000120165
-2.66215e-06
0.000120925
-2.7663e-06
0.000121711
-2.86319e-06
0.000122521
-2.95334e-06
0.000123355
-3.03721e-06
0.00012421
-3.11516e-06
0.000125085
-3.1875e-06
0.000125979
-3.25451e-06
0.000126889
-3.31642e-06
0.000127815
-3.37341e-06
0.000128754
-3.42564e-06
0.000129707
-3.47326e-06
0.000130672
-3.51636e-06
0.000131647
-3.55505e-06
0.000132631
-3.58941e-06
0.000133624
-3.61949e-06
0.000134623
-3.64535e-06
0.000135628
-3.66702e-06
0.000136637
-3.68455e-06
0.000137651
-3.69794e-06
0.000138666
-3.70721e-06
0.000139683
-3.71236e-06
0.000140699
-3.7134e-06
0.000141715
-3.71031e-06
0.000142728
-3.70306e-06
0.000143738
-3.69164e-06
0.000144744
-3.676e-06
0.000145744
-3.65608e-06
0.000146736
-3.63183e-06
0.000147721
-3.60316e-06
0.000148697
-3.56997e-06
0.000149661
-3.53215e-06
0.000150614
-3.48955e-06
0.000151554
-3.44201e-06
0.000152479
-3.38932e-06
0.000153387
-3.33124e-06
0.000154278
-3.26751e-06
0.00015515
-3.19779e-06
0.000156001
-3.12169e-06
0.000156829
-3.03877e-06
0.000157632
-2.94849e-06
0.000158409
-2.85022e-06
0.000159156
-2.74322e-06
0.000159872
-2.62662e-06
0.000160553
-2.49937e-06
0.000161197
-2.36024e-06
0.0001618
-2.20775e-06
0.000162358
-2.04011e-06
0.000162867
-1.85517e-06
0.000163323
-1.65031e-06
0.000163719
-1.42232e-06
0.000164049
-1.16727e-06
0.000164307
-8.8023e-07
0.000164483
-5.55078e-07
0.000164567
-1.84087e-07
0.00016455
2.42486e-07
0.000164417
7.37177e-07
0.000164155
1.31636e-06
0.000163748
2.00136e-06
0.000163179
2.82009e-06
0.000162434
3.80909e-06
0.000161502
5.01592e-06
0.000160388
6.50148e-06
0.000159121
8.34083e-06
0.000157787
1.06189e-05
0.000156561
1.34127e-05
0.000155764
1.67422e-05
0.000155875
2.04474e-05
2.39375e-05
0.000157226
0.00012213
-4.787e-07
0.00012233
-9.02801e-07
0.000122613
-1.26946e-06
0.00012297
-1.5917e-06
0.000123392
-1.87931e-06
0.000123874
-2.13868e-06
0.000124409
-2.37427e-06
0.000124993
-2.58953e-06
0.000125622
-2.78717e-06
0.000126292
-2.9693e-06
0.000127001
-3.13765e-06
0.000127745
-3.29363e-06
0.000128521
-3.4384e-06
0.000129328
-3.57295e-06
0.000130164
-3.69807e-06
0.000131025
-3.81445e-06
0.000131911
-3.92267e-06
0.00013282
-4.02322e-06
0.000133749
-4.11649e-06
0.000134698
-4.20285e-06
0.000135665
-4.28258e-06
0.000136648
-4.35593e-06
0.000137646
-4.42312e-06
0.000138658
-4.48431e-06
0.000139682
-4.53966e-06
0.000140716
-4.58928e-06
0.000141761
-4.63327e-06
0.000142814
-4.67173e-06
0.000143874
-4.70472e-06
0.000144939
-4.73228e-06
0.00014601
-4.75446e-06
0.000147084
-4.77128e-06
0.00014816
-4.78277e-06
0.000149237
-4.78893e-06
0.000150314
-4.78976e-06
0.000151389
-4.78524e-06
0.000152462
-4.77535e-06
0.000153531
-4.76005e-06
0.000154595
-4.7393e-06
0.000155652
-4.71303e-06
0.000156702
-4.68116e-06
0.000157743
-4.64358e-06
0.000158774
-4.60019e-06
0.000159793
-4.55082e-06
0.000160799
-4.4953e-06
0.000161791
-4.43342e-06
0.000162767
-4.36494e-06
0.000163726
-4.28955e-06
0.000164666
-4.20691e-06
0.000165585
-4.11662e-06
0.000166482
-4.0182e-06
0.000167354
-3.91109e-06
0.000168201
-3.79463e-06
0.000169019
-3.66805e-06
0.000169807
-3.53045e-06
0.000170561
-3.38075e-06
0.00017128
-3.21772e-06
0.00017196
-3.03984e-06
0.000172597
-2.84535e-06
0.00017319
-2.63213e-06
0.000173733
-2.39765e-06
0.000174221
-2.13885e-06
0.000174651
-1.85205e-06
0.000175017
-1.53275e-06
0.000175312
-1.17547e-06
0.000175531
-7.73463e-07
0.000175666
-3.18423e-07
0.000175708
1.99822e-07
0.000175652
7.93832e-07
0.000175489
1.4794e-06
0.000175214
2.27626e-06
0.000174826
3.20875e-06
0.000174329
4.3066e-06
0.000173739
5.60523e-06
0.000173096
7.14504e-06
0.000172469
8.96834e-06
0.000171977
1.11111e-05
0.000171805
1.35848e-05
0.000172206
1.6341e-05
0.000173446
1.92073e-05
2.18004e-05
0.000175583
0.00013068
-5.83856e-07
0.000130889
-1.11162e-06
0.000131186
-1.56682e-06
0.000131562
-1.96753e-06
0.000132008
-2.32521e-06
0.000132517
-2.64767e-06
0.000133084
-2.94047e-06
0.000133702
-3.20793e-06
0.000134369
-3.45339e-06
0.000135079
-3.67953e-06
0.000135831
-3.88848e-06
0.000136619
-4.08201e-06
0.000137443
-4.26158e-06
0.000138299
-4.42838e-06
0.000139185
-4.58344e-06
0.000140098
-4.72761e-06
0.000141038
-4.86159e-06
0.000142001
-4.98601e-06
0.000142987
-5.10137e-06
0.000143992
-5.20811e-06
0.000145017
-5.30659e-06
0.000146059
-5.39712e-06
0.000147116
-5.47996e-06
0.000148188
-5.55534e-06
0.000149272
-5.62343e-06
0.000150368
-5.68439e-06
0.000151474
-5.73835e-06
0.000152588
-5.78541e-06
0.00015371
-5.82566e-06
0.000154837
-5.85916e-06
0.000155969
-5.88596e-06
0.000157105
-5.9061e-06
0.000158242
-5.9196e-06
0.00015938
-5.92647e-06
0.000160518
-5.92672e-06
0.000161653
-5.92033e-06
0.000162786
-5.90727e-06
0.000163914
-5.8875e-06
0.000165036
-5.86096e-06
0.000166151
-5.82758e-06
0.000167258
-5.78727e-06
0.000168355
-5.7399e-06
0.00016944
-5.68533e-06
0.000170513
-5.62339e-06
0.000171572
-5.55386e-06
0.000172616
-5.47651e-06
0.000173643
-5.39103e-06
0.000174651
-5.29708e-06
0.000175638
-5.19425e-06
0.000176604
-5.08207e-06
0.000177546
-4.95998e-06
0.000178463
-4.82732e-06
0.000179352
-4.68334e-06
0.000180212
-4.52714e-06
0.000181039
-4.35769e-06
0.000181832
-4.17376e-06
0.000182589
-3.97392e-06
0.000183306
-3.7565e-06
0.00018398
-3.5195e-06
0.000184609
-3.2606e-06
0.000185189
-2.977e-06
0.000185716
-2.66543e-06
0.000186186
-2.32195e-06
0.000186595
-1.94186e-06
0.00018694
-1.51955e-06
0.000187215
-1.04827e-06
0.000187416
-5.19937e-07
0.000187541
7.50424e-08
0.000187587
7.47927e-07
0.000187555
1.51203e-06
0.000187448
2.38328e-06
0.000187277
3.37997e-06
0.000187061
4.52242e-06
0.000186835
5.83211e-06
0.00018665
7.32953e-06
0.000186589
9.03008e-06
0.000186763
1.09367e-05
0.000187321
1.30273e-05
0.000188426
1.52358e-05
0.000190208
1.74261e-05
1.93717e-05
0.000192637
0.000139828
-6.92101e-07
0.000140046
-1.32918e-06
0.000140357
-1.87821e-06
0.000140752
-2.36238e-06
0.000141222
-2.79473e-06
0.000141759
-3.18444e-06
0.000142357
-3.53823e-06
0.000143011
-3.86129e-06
0.000143715
-4.15769e-06
0.000144467
-4.43064e-06
0.000145262
-4.68275e-06
0.000146096
-4.91616e-06
0.000146968
-5.13262e-06
0.000147873
-5.3336e-06
0.000148811
-5.52034e-06
0.000149778
-5.69387e-06
0.000150772
-5.85505e-06
0.000151791
-6.00463e-06
0.000152833
-6.14323e-06
0.000153897
-6.27136e-06
0.000154981
-6.38948e-06
0.000156082
-6.49797e-06
0.0001572
-6.59714e-06
0.000158332
-6.68726e-06
0.000159478
-6.76855e-06
0.000160636
-6.84121e-06
0.000161803
-6.90538e-06
0.00016298
-6.9612e-06
0.000164164
-7.00877e-06
0.000165353
-7.04817e-06
0.000166547
-7.07946e-06
0.000167745
-7.1027e-06
0.000168944
-7.11791e-06
0.000170143
-7.12512e-06
0.000171341
-7.12432e-06
0.000172537
-7.11551e-06
0.000173729
-7.09865e-06
0.000174916
-7.0737e-06
0.000176096
-7.04059e-06
0.000177268
-6.99926e-06
0.000178431
-6.94958e-06
0.000179583
-6.89142e-06
0.000180723
-6.82463e-06
0.000181849
-6.74901e-06
0.00018296
-6.66433e-06
0.000184055
-6.57029e-06
0.000185131
-6.46658e-06
0.000186187
-6.3528e-06
0.000187222
-6.2285e-06
0.000188233
-6.09315e-06
0.00018922
-5.94611e-06
0.000190179
-5.78668e-06
0.000191111
-5.61401e-06
0.000192011
-5.42712e-06
0.000192878
-5.22487e-06
0.000193711
-5.00595e-06
0.000194506
-4.76881e-06
0.000195262
-4.51167e-06
0.000195975
-4.23244e-06
0.000196643
-3.9287e-06
0.000197264
-3.5976e-06
0.000197835
-3.23583e-06
0.000198353
-2.8395e-06
0.000198815
-2.40409e-06
0.00019922
-1.92431e-06
0.000199566
-1.394e-06
0.000199853
-8.06031e-07
0.00020008
-1.52248e-07
0.000200252
5.76386e-07
0.000200375
1.38959e-06
0.00020046
2.29836e-06
0.000200526
3.31414e-06
0.0002006
4.44795e-06
0.000200724
5.70908e-06
0.000200951
7.1028e-06
0.000201354
8.62706e-06
0.000202023
1.02676e-05
0.000203059
1.19913e-05
0.000204557
1.37384e-05
0.000206568
1.54149e-05
1.68938e-05
0.000209046
0.000149618
-8.03557e-07
0.000149844
-1.55532e-06
0.000150169
-2.20346e-06
0.000150583
-2.77606e-06
0.000151076
-3.28777e-06
0.000151641
-3.74903e-06
0.000152271
-4.16769e-06
0.00015296
-4.5499e-06
0.000153703
-4.90043e-06
0.000154496
-5.2231e-06
0.000155334
-5.52101e-06
0.000156215
-5.79668e-06
0.000157135
-6.0522e-06
0.000158092
-6.28934e-06
0.000159081
-6.50953e-06
0.000160102
-6.71402e-06
0.000161151
-6.90383e-06
0.000162227
-7.07985e-06
0.000163328
-7.24281e-06
0.00016445
-7.39334e-06
0.000165593
-7.53198e-06
0.000166755
-7.65916e-06
0.000167934
-7.77527e-06
0.000169128
-7.88063e-06
0.000170336
-7.97552e-06
0.000171555
-8.06014e-06
0.000172785
-8.1347e-06
0.000174024
-8.19935e-06
0.00017527
-8.25421e-06
0.000176522
-8.29938e-06
0.000177779
-8.33495e-06
0.000179038
-8.36097e-06
0.000180298
-8.3775e-06
0.000181558
-8.38454e-06
0.000182816
-8.38212e-06
0.000184072
-8.37023e-06
0.000185323
-8.34883e-06
0.000186567
-8.31789e-06
0.000187805
-8.27734e-06
0.000189033
-8.2271e-06
0.000190251
-8.16704e-06
0.000191458
-8.09704e-06
0.000192651
-8.01691e-06
0.000193829
-7.92645e-06
0.00019499
-7.8254e-06
0.000196134
-7.71345e-06
0.000197258
-7.59027e-06
0.000198361
-7.45542e-06
0.000199442
-7.30842e-06
0.000200498
-7.14869e-06
0.000201528
-6.97558e-06
0.00020253
-6.78832e-06
0.000203502
-6.58602e-06
0.000204443
-6.36767e-06
0.000205351
-6.13208e-06
0.000206223
-5.8779e-06
0.000207058
-5.60356e-06
0.000207854
-5.30727e-06
0.000208609
-4.98697e-06
0.000209321
-4.64028e-06
0.000209988
-4.2645e-06
0.000210609
-3.85652e-06
0.000211183
-3.4128e-06
0.000211708
-2.92932e-06
0.000212186
-2.40153e-06
0.000212616
-1.82435e-06
0.000213003
-1.19216e-06
0.00021335
-4.98834e-07
0.000213664
2.62076e-07
0.000213958
1.09653e-06
0.000214246
2.01033e-06
0.000214551
3.00874e-06
0.000214904
4.09522e-06
0.000215343
5.27022e-06
0.000215917
6.52956e-06
0.000216682
7.86228e-06
0.000217701
9.24818e-06
0.000219038
1.06552e-05
0.000220739
1.20371e-05
0.000222821
1.33336e-05
1.4475e-05
0.00022524
0.000160092
-9.18366e-07
0.000160327
-1.78992e-06
0.000160666
-2.5424e-06
0.000161099
-3.20837e-06
0.000161615
-3.80414e-06
0.000162208
-4.34129e-06
0.000162869
-4.82882e-06
0.000163593
-5.27378e-06
0.000164375
-5.68173e-06
0.000165209
-6.05711e-06
0.000166092
-6.40352e-06
0.00016702
-6.7239e-06
0.000167989
-7.02071e-06
0.000168996
-7.29598e-06
0.000170039
-7.55143e-06
0.000171114
-7.78848e-06
0.000172219
-8.00836e-06
0.000173352
-8.21208e-06
0.00017451
-8.40052e-06
0.000175692
-8.5744e-06
0.000176895
-8.73436e-06
0.000178118
-8.88092e-06
0.000179358
-9.01454e-06
0.000180613
-9.13557e-06
0.000181883
-9.24436e-06
0.000183165
-9.34115e-06
0.000184457
-9.42618e-06
0.000185758
-9.49963e-06
0.000187066
-9.56166e-06
0.00018838
-9.61238e-06
0.000189698
-9.65189e-06
0.000191018
-9.68029e-06
0.000192339
-9.69761e-06
0.000193659
-9.7039e-06
0.000194976
-9.69917e-06
0.00019629
-9.68343e-06
0.000197599
-9.65666e-06
0.000198901
-9.61882e-06
0.000200194
-9.56985e-06
0.000201477
-9.50966e-06
0.000202749
-9.43814e-06
0.000204008
-9.35515e-06
0.000205252
-9.26051e-06
0.00020648
-9.154e-06
0.000207691
-9.03537e-06
0.000208882
-8.9043e-06
0.000210053
-8.76043e-06
0.000211201
-8.60333e-06
0.000212326
-8.43249e-06
0.000213425
-8.24734e-06
0.000214497
-8.04721e-06
0.000215541
-7.83132e-06
0.000216554
-7.59878e-06
0.000217535
-7.34859e-06
0.000218483
-7.07959e-06
0.000219396
-6.79045e-06
0.000220273
-6.47969e-06
0.000221111
-6.14561e-06
0.000221911
-5.7863e-06
0.000222671
-5.39961e-06
0.00022339
-4.98314e-06
0.000224068
-4.53422e-06
0.000224705
-4.04988e-06
0.000225303
-3.5269e-06
0.000225864
-2.96178e-06
0.000226391
-2.35082e-06
0.000226889
-1.69019e-06
0.000227366
-9.76032e-07
0.000227833
-2.04554e-07
0.000228303
6.27141e-07
0.000228793
1.52032e-06
0.000229327
2.47533e-06
0.000229932
3.49042e-06
0.000230641
4.5608e-06
0.000231493
5.67765e-06
0.000232529
6.8271e-06
0.000233788
7.98934e-06
0.000235305
9.13804e-06
0.000237102
1.02406e-05
0.000239176
1.12596e-05
1.21573e-05
0.000241494
0.000171301
-1.03666e-06
0.000171544
-2.03287e-06
0.000171896
-2.89486e-06
0.000172347
-3.65908e-06
0.000172887
-4.34357e-06
0.000173507
-4.96098e-06
0.0001742
-5.52137e-06
0.000174959
-6.03276e-06
0.000175779
-6.50148e-06
0.000176655
-6.9326e-06
0.000177582
-7.33025e-06
0.000178557
-7.69783e-06
0.000179575
-8.03815e-06
0.000180633
-8.35357e-06
0.000181728
-8.64606e-06
0.000182858
-8.91728e-06
0.000184019
-9.16862e-06
0.000185208
-9.40128e-06
0.000186425
-9.61626e-06
0.000187666
-9.81441e-06
0.000188929
-9.99646e-06
0.000190211
-1.0163e-05
0.000191512
-1.03146e-05
0.000192829
-1.04517e-05
0.00019416
-1.05746e-05
0.000195504
-1.06837e-05
0.000196857
-1.07791e-05
0.00019822
-1.08613e-05
0.000199589
-1.09302e-05
0.000200964
-1.09862e-05
0.000202342
-1.10292e-05
0.000203722
-1.10594e-05
0.000205102
-1.10769e-05
0.000206481
-1.10817e-05
0.000207856
-1.10739e-05
0.000209227
-1.10535e-05
0.000210592
-1.10204e-05
0.000211948
-1.09747e-05
0.000213295
-1.09162e-05
0.000214631
-1.0845e-05
0.000215955
-1.07608e-05
0.000217264
-1.06637e-05
0.000218557
-1.05533e-05
0.000219834
-1.04295e-05
0.000221091
-1.02921e-05
0.000222328
-1.01407e-05
0.000223543
-9.97505e-06
0.000224735
-9.79462e-06
0.000225902
-9.59897e-06
0.000227043
-9.38755e-06
0.000228156
-9.1597e-06
0.00022924
-8.91469e-06
0.000230293
-8.65168e-06
0.000231315
-8.36973e-06
0.000232304
-8.06777e-06
0.000233258
-7.74461e-06
0.000234178
-7.39891e-06
0.000235062
-7.02918e-06
0.00023591
-6.63381e-06
0.000236722
-6.21099e-06
0.000237498
-5.7588e-06
0.000238239
-5.27515e-06
0.000238947
-4.75785e-06
0.000239625
-4.20464e-06
0.000240277
-3.61323e-06
0.000240908
-2.98139e-06
0.000241525
-2.30709e-06
0.000242138
-1.58865e-06
0.000242759
-8.24821e-07
0.000243401
-1.51252e-08
0.000244082
8.39654e-07
0.000244822
1.7354e-06
0.000245645
2.66768e-06
0.000246577
3.62925e-06
0.000247645
4.60999e-06
0.000248876
5.59657e-06
0.000250293
6.57233e-06
0.000251914
7.51756e-06
0.000253744
8.41031e-06
0.000255776
9.22803e-06
9.95036e-06
0.000257983
0.000183294
-1.15856e-06
0.000183545
-2.28407e-06
0.000183911
-3.26061e-06
0.00018438
-4.12787e-06
0.000184942
-4.90568e-06
0.000185589
-5.60767e-06
0.000186313
-6.24494e-06
0.000187107
-6.82642e-06
0.000187965
-7.35925e-06
0.000188882
-7.84916e-06
0.000189853
-8.30081e-06
0.000190874
-8.71807e-06
0.000191941
-9.10414e-06
0.00019305
-9.4617e-06
0.000194197
-9.79301e-06
0.000195381
-1.01e-05
0.000196597
-1.03841e-05
0.000197843
-1.06469e-05
0.000199117
-1.08895e-05
0.000200416
-1.11127e-05
0.000201738
-1.13175e-05
0.000203081
-1.15046e-05
0.000204441
-1.16746e-05
0.000205819
-1.1828e-05
0.00020721
-1.19651e-05
0.000208614
-1.20865e-05
0.000210028
-1.21923e-05
0.00021145
-1.22829e-05
0.000212879
-1.23584e-05
0.000214313
-1.24191e-05
0.00021575
-1.24651e-05
0.000217188
-1.24965e-05
0.000218625
-1.25135e-05
0.00022006
-1.2516e-05
0.000221491
-1.25042e-05
0.000222917
-1.24781e-05
0.000224335
-1.24376e-05
0.000225744
-1.23829e-05
0.000227142
-1.23138e-05
0.000228529
-1.22304e-05
0.000229901
-1.21324e-05
0.000231258
-1.20199e-05
0.000232598
-1.18926e-05
0.00023392
-1.17504e-05
0.000235221
-1.15931e-05
0.000236501
-1.14203e-05
0.000237759
-1.12317e-05
0.000238992
-1.10271e-05
0.000240199
-1.08058e-05
0.00024138
-1.05675e-05
0.000242532
-1.03116e-05
0.000243656
-1.00373e-05
0.000244749
-9.74404e-06
0.00024581
-9.4309e-06
0.00024684
-9.097e-06
0.000247837
-8.74136e-06
0.000248802
-8.36287e-06
0.000249733
-7.96036e-06
0.000250633
-7.5326e-06
0.0002515
-7.07826e-06
0.000252338
-6.59598e-06
0.000253148
-6.08438e-06
0.000253932
-5.54213e-06
0.000254696
-4.96796e-06
0.000255444
-4.36078e-06
0.000256183
-3.71978e-06
0.00025692
-3.04452e-06
0.000257667
-2.3351e-06
0.000258435
-1.59229e-06
0.000259238
-8.17607e-07
0.000260091
-1.32203e-08
0.00026101
8.16249e-07
0.000262014
1.66388e-06
0.000263122
2.52196e-06
0.000264351
3.38099e-06
0.000265718
4.22968e-06
0.000267236
5.05523e-06
0.00026891
5.84368e-06
0.00027074
6.58079e-06
0.000272715
7.25314e-06
7.84989e-06
0.000274815
0.000196126
-1.28411e-06
0.000196386
-2.54336e-06
0.000196765
-3.63936e-06
0.000197251
-4.61432e-06
0.000197836
-5.48993e-06
0.000198509
-6.28076e-06
0.000199263
-6.99884e-06
0.000200091
-7.65405e-06
0.000200987
-8.25432e-06
0.000201944
-8.80602e-06
0.000202959
-9.3144e-06
0.000204025
-9.78379e-06
0.000205139
-1.02178e-05
0.000206298
-1.06195e-05
0.000207497
-1.09913e-05
0.000208733
-1.13355e-05
0.000210003
-1.16538e-05
0.000211305
-1.19478e-05
0.000212635
-1.22189e-05
0.000213992
-1.2468e-05
0.000215371
-1.26962e-05
0.000216772
-1.29043e-05
0.000218191
-1.30929e-05
0.000219626
-1.32627e-05
0.000221076
-1.34141e-05
0.000222538
-1.35476e-05
0.000224011
-1.36635e-05
0.000225491
-1.37622e-05
0.000226977
-1.38439e-05
0.000228468
-1.39088e-05
0.000229961
-1.3957e-05
0.000231454
-1.39889e-05
0.000232946
-1.40044e-05
0.000234435
-1.40038e-05
0.000235918
-1.3987e-05
0.000237395
-1.39541e-05
0.000238864
-1.39052e-05
0.000240322
-1.38404e-05
0.000241769
-1.37595e-05
0.000243202
-1.36626e-05
0.00024462
-1.35497e-05
0.000246021
-1.34205e-05
0.000247405
-1.32752e-05
0.000248769
-1.31134e-05
0.000250111
-1.2935e-05
0.000251432
-1.27399e-05
0.000252728
-1.25276e-05
0.000254
-1.2298e-05
0.000255246
-1.20507e-05
0.000256464
-1.17852e-05
0.000257654
-1.15011e-05
0.000258815
-1.11979e-05
0.000259947
-1.0875e-05
0.000261048
-1.05317e-05
0.000262119
-1.01674e-05
0.00026316
-9.78138e-06
0.00026417
-9.37284e-06
0.000265151
-8.941e-06
0.000266104
-8.48506e-06
0.000267031
-8.00424e-06
0.000267933
-7.49781e-06
0.000268814
-6.96511e-06
0.000269678
-6.40565e-06
0.00027053
-5.81912e-06
0.000271375
-5.2055e-06
0.000272221
-4.56514e-06
0.000273075
-3.89886e-06
0.000273949
-3.20804e-06
0.000274851
-2.49478e-06
0.000275796
-1.76189e-06
0.000276796
-1.01291e-06
0.000277864
-2.51802e-07
0.000279013
5.15273e-07
0.000280255
1.2807e-06
0.0002816
2.03573e-06
0.000283059
2.77172e-06
0.000284635
3.47929e-06
0.00028633
4.14892e-06
0.000288139
4.77159e-06
0.000290053
5.33948e-06
5.84698e-06
0.000292056
0.000209857
-1.41331e-06
0.000210125
-2.81052e-06
0.000210516
-4.03067e-06
0.00021102
-5.11785e-06
0.000211626
-6.09559e-06
0.000212325
-6.97938e-06
0.000213108
-7.78212e-06
0.000213969
-8.5146e-06
0.000214901
-9.18552e-06
0.000215898
-9.80197e-06
0.000216954
-1.03697e-05
0.000218064
-1.08936e-05
0.000219225
-1.13777e-05
0.000220431
-1.18253e-05
0.00022168
-1.22394e-05
0.000222968
-1.26222e-05
0.000224291
-1.29759e-05
0.000225646
-1.33022e-05
0.00022703
-1.36025e-05
0.000228442
-1.38782e-05
0.000229877
-1.41302e-05
0.000231333
-1.43596e-05
0.000232808
-1.45671e-05
0.0002343
-1.47533e-05
0.000235805
-1.49189e-05
0.000237323
-1.50643e-05
0.000238851
-1.519e-05
0.000240386
-1.52963e-05
0.000241926
-1.53834e-05
0.00024347
-1.54518e-05
0.000245016
-1.55016e-05
0.000246561
-1.5533e-05
0.000248104
-1.55462e-05
0.000249642
-1.55413e-05
0.000251175
-1.55184e-05
0.000252699
-1.54777e-05
0.000254214
-1.54192e-05
0.000255718
-1.5343e-05
0.000257209
-1.52491e-05
0.000258684
-1.51376e-05
0.000260144
-1.50084e-05
0.000261586
-1.48616e-05
0.000263009
-1.4697e-05
0.000264411
-1.45146e-05
0.000265791
-1.43143e-05
0.000267148
-1.4096e-05
0.00026848
-1.38594e-05
0.000269788
-1.36044e-05
0.000271068
-1.33307e-05
0.000272322
-1.3038e-05
0.000273548
-1.27261e-05
0.000274745
-1.23946e-05
0.000275914
-1.20431e-05
0.000277054
-1.16712e-05
0.000278166
-1.12786e-05
0.00027925
-1.08648e-05
0.000280307
-1.04293e-05
0.000281338
-9.97196e-06
0.000282346
-9.49232e-06
0.000283333
-8.99018e-06
0.000284301
-8.46542e-06
0.000285254
-7.91809e-06
0.000286197
-7.34841e-06
0.000287136
-6.75691e-06
0.000288075
-6.14441e-06
0.000289022
-5.51213e-06
0.000289986
-4.86173e-06
0.000290974
-4.19542e-06
0.000291995
-3.51597e-06
0.00029306
-2.82677e-06
0.00029418
-2.13177e-06
0.000295364
-1.43543e-06
0.000296621
-7.42355e-07
0.00029796
-5.78776e-08
0.000299386
6.10926e-07
0.0003009
1.25728e-06
0.000302506
1.87406e-06
0.0003042
2.45491e-06
0.000305978
2.99434e-06
0.00030783
3.48784e-06
3.93264e-06
0.000309744
0.00022455
-1.54608e-06
0.000224825
-3.08523e-06
0.000225228
-4.43394e-06
0.000225748
-5.63767e-06
0.000226374
-6.72166e-06
0.000227098
-7.70233e-06
0.000227909
-8.59341e-06
0.000228802
-9.40655e-06
0.000229768
-1.01513e-05
0.000230802
-1.08353e-05
0.000231898
-1.14649e-05
0.000233051
-1.20456e-05
0.000234255
-1.25818e-05
0.000235508
-1.30772e-05
0.000236804
-1.35349e-05
0.000238141
-1.39577e-05
0.000239514
-1.43478e-05
0.00024092
-1.47073e-05
0.000242356
-1.50376e-05
0.000243819
-1.53403e-05
0.000245306
-1.56166e-05
0.000246815
-1.58674e-05
0.000248343
-1.60938e-05
0.000249887
-1.62963e-05
0.000251445
-1.64758e-05
0.000253014
-1.66328e-05
0.000254593
-1.67676e-05
0.000256179
-1.68809e-05
0.000257769
-1.69729e-05
0.000259363
-1.7044e-05
0.000260957
-1.70943e-05
0.000262549
-1.71243e-05
0.000264138
-1.71341e-05
0.000265722
-1.71238e-05
0.000267298
-1.70937e-05
0.000268865
-1.70439e-05
0.000270422
-1.69746e-05
0.000271965
-1.68858e-05
0.000273495
-1.67777e-05
0.000275009
-1.66503e-05
0.000276505
-1.65038e-05
0.000277983
-1.63381e-05
0.00027944
-1.61533e-05
0.000280876
-1.59494e-05
0.000282289
-1.57264e-05
0.000283678
-1.54843e-05
0.000285042
-1.52229e-05
0.000286381
-1.49423e-05
0.000287693
-1.46423e-05
0.000288979
-1.43229e-05
0.000290238
-1.39838e-05
0.000291469
-1.36251e-05
0.000292673
-1.32465e-05
0.00029385
-1.28479e-05
0.000295002
-1.24293e-05
0.000296128
-1.19905e-05
0.000297231
-1.15316e-05
0.000298312
-1.10526e-05
0.000299374
-1.05537e-05
0.00030042
-1.00352e-05
0.000301452
-9.49748e-06
0.000302476
-8.94117e-06
0.000303495
-8.36712e-06
0.000304515
-7.77647e-06
0.000305542
-7.17064e-06
0.000306582
-6.5514e-06
0.000307641
-5.9209e-06
0.000308728
-5.28172e-06
0.000309849
-4.63683e-06
0.000311013
-3.98964e-06
0.000312225
-3.34396e-06
0.000313494
-2.70388e-06
0.000314826
-2.07373e-06
0.000316226
-1.45797e-06
0.000317698
-8.605e-07
0.000319242
-2.85802e-07
0.000320855
2.61422e-07
0.000322533
7.76705e-07
0.000324271
1.25636e-06
0.000326062
1.69771e-06
2.09931e-06
0.000327896
0.000240271
-1.68225e-06
0.000240552
-3.36701e-06
0.000240967
-4.84838e-06
0.000241502
-6.17269e-06
0.000242148
-7.36679e-06
0.000242894
-8.44802e-06
0.000243732
-9.4309e-06
0.000244654
-1.03279e-05
0.000245652
-1.11493e-05
0.000246721
-1.19035e-05
0.000247854
-1.25975e-05
0.000249047
-1.32371e-05
0.000250293
-1.38271e-05
0.000251588
-1.43718e-05
0.000252929
-1.48747e-05
0.000254311
-1.53386e-05
0.00025573
-1.57661e-05
0.000257183
-1.61594e-05
0.000258667
-1.65203e-05
0.000260178
-1.68504e-05
0.000261713
-1.7151e-05
0.000263271
-1.74234e-05
0.000264846
-1.76684e-05
0.000266438
-1.78871e-05
0.000268044
-1.808e-05
0.00026966
-1.8248e-05
0.000271285
-1.83914e-05
0.000272916
-1.85109e-05
0.000274551
-1.86068e-05
0.000276188
-1.86796e-05
0.000277824
-1.87295e-05
0.000279458
-1.8757e-05
0.000281088
-1.87622e-05
0.00028271
-1.87454e-05
0.000284324
-1.87068e-05
0.000285928
-1.86467e-05
0.00028752
-1.85653e-05
0.000289098
-1.84627e-05
0.000290661
-1.83391e-05
0.000292206
-1.81948e-05
0.000293733
-1.80298e-05
0.00029524
-1.78443e-05
0.000296727
-1.76384e-05
0.00029819
-1.74122e-05
0.000299631
-1.7166e-05
0.000301047