/*--------------------------------*- C++ -*----------------------------------*\
| =========                 |                                                 |
| \\      /  F ield         | OpenFOAM: The Open Source CFD Toolbox           |
|  \\    /   O peration     | Version:  2106                                  |
|   \\  /    A nd           | Website:  www.openfoam.com                      |
|    \\/     M anipulation  |                                                 |
\*---------------------------------------------------------------------------*/
FoamFile
{
    version     2.0;
    format      ascii;
    arch        "LSB;label=32;scalar=64";
    class       volScalarField;
    location    "4.4";
    object      T;
}
// * * * * * * * * * * * * * * * * * * * * * * * * * * * * * * * * * * * * * //

dimensions      [0 0 0 1 0 0 0];

internalField   nonuniform List<scalar> 
12013
(
300.003
300.009
300.015
300.021
300.028
300.035
300.043
300.05
300.058
300.067
300.076
300.085
300.094
300.104
300.115
300.126
300.137
300.149
300.161
300.174
300.187
300.201
300.216
300.231
300.246
300.262
300.279
300.296
300.314
300.333
300.352
300.372
300.392
300.413
300.435
300.458
300.481
300.505
300.53
300.556
300.582
300.609
300.637
300.666
300.696
300.726
300.758
300.79
300.824
300.858
300.893
300.93
300.967
301.005
301.045
301.086
301.127
301.171
301.215
301.261
301.308
301.356
301.406
301.458
301.511
301.566
301.623
301.682
301.743
301.807
301.873
301.942
302.014
302.09
302.171
302.256
302.347
302.446
302.556
302.679
302.827
300.003
300.009
300.015
300.021
300.028
300.035
300.043
300.05
300.058
300.067
300.076
300.085
300.094
300.104
300.115
300.126
300.137
300.149
300.161
300.174
300.187
300.201
300.216
300.231
300.246
300.262
300.279
300.296
300.314
300.333
300.352
300.372
300.392
300.413
300.435
300.458
300.481
300.505
300.53
300.556
300.582
300.609
300.637
300.666
300.696
300.726
300.758
300.79
300.824
300.858
300.893
300.929
300.967
301.005
301.045
301.085
301.127
301.17
301.215
301.26
301.307
301.356
301.406
301.457
301.51
301.565
301.622
301.681
301.742
301.805
301.871
301.94
302.012
302.088
302.167
302.251
302.341
302.438
302.543
302.658
302.785
300.003
300.009
300.015
300.021
300.028
300.035
300.043
300.05
300.058
300.067
300.076
300.085
300.094
300.104
300.115
300.126
300.137
300.149
300.161
300.174
300.187
300.201
300.216
300.23
300.246
300.262
300.279
300.296
300.314
300.333
300.352
300.372
300.392
300.413
300.435
300.458
300.481
300.505
300.53
300.556
300.582
300.609
300.637
300.666
300.696
300.726
300.758
300.79
300.823
300.858
300.893
300.929
300.966
301.005
301.044
301.085
301.127
301.169
301.214
301.259
301.306
301.354
301.404
301.456
301.509
301.563
301.62
301.679
301.739
301.802
301.868
301.936
302.007
302.081
302.159
302.241
302.328
302.421
302.519
302.622
302.73
300.003
300.009
300.015
300.021
300.028
300.035
300.043
300.05
300.058
300.067
300.076
300.085
300.094
300.104
300.115
300.126
300.137
300.149
300.161
300.174
300.187
300.201
300.216
300.23
300.246
300.262
300.279
300.296
300.314
300.332
300.352
300.371
300.392
300.413
300.435
300.458
300.481
300.505
300.53
300.555
300.582
300.609
300.637
300.666
300.695
300.726
300.757
300.789
300.823
300.857
300.892
300.928
300.966
301.004
301.043
301.084
301.125
301.168
301.212
301.258
301.304
301.353
301.402
301.453
301.506
301.56
301.617
301.675
301.735
301.797
301.862
301.929
301.998
302.071
302.147
302.226
302.309
302.396
302.486
302.579
302.673
300.003
300.009
300.015
300.021
300.028
300.035
300.043
300.05
300.058
300.067
300.076
300.085
300.094
300.104
300.115
300.126
300.137
300.149
300.161
300.174
300.187
300.201
300.215
300.23
300.246
300.262
300.279
300.296
300.314
300.332
300.351
300.371
300.392
300.413
300.435
300.457
300.481
300.505
300.529
300.555
300.581
300.608
300.636
300.665
300.695
300.725
300.757
300.789
300.822
300.856
300.891
300.927
300.964
301.003
301.042
301.082
301.124
301.166
301.21
301.256
301.302
301.35
301.399
301.45
301.502
301.556
301.612
301.669
301.728
301.789
301.853
301.918
301.986
302.057
302.13
302.206
302.284
302.364
302.447
302.531
302.613
300.003
300.009
300.015
300.021
300.028
300.035
300.043
300.05
300.058
300.067
300.076
300.085
300.094
300.104
300.115
300.126
300.137
300.149
300.161
300.174
300.187
300.201
300.215
300.23
300.246
300.262
300.278
300.296
300.314
300.332
300.351
300.371
300.391
300.413
300.434
300.457
300.48
300.504
300.529
300.554
300.581
300.608
300.636
300.664
300.694
300.724
300.756
300.788
300.821
300.855
300.89
300.926
300.963
301.001
301.04
301.08
301.122
301.164
301.208
301.252
301.299
301.346
301.395
301.445
301.497
301.55
301.605
301.661
301.719
301.779
301.841
301.905
301.971
302.039
302.108
302.18
302.253
302.328
302.404
302.479
302.554
300.003
300.009
300.015
300.021
300.028
300.035
300.043
300.05
300.058
300.067
300.075
300.085
300.094
300.104
300.115
300.126
300.137
300.149
300.161
300.174
300.187
300.201
300.215
300.23
300.246
300.262
300.278
300.296
300.313
300.332
300.351
300.371
300.391
300.412
300.434
300.457
300.48
300.504
300.528
300.554
300.58
300.607
300.635
300.664
300.693
300.723
300.755
300.787
300.82
300.853
300.888
300.924
300.961
300.999
301.038
301.078
301.119
301.161
301.204
301.248
301.294
301.341
301.389
301.439
301.49
301.542
301.596
301.651
301.708
301.767
301.827
301.888
301.952
302.016
302.083
302.15
302.219
302.288
302.357
302.426
302.494
300.003
300.009
300.015
300.021
300.028
300.035
300.043
300.05
300.058
300.067
300.075
300.085
300.094
300.104
300.115
300.125
300.137
300.149
300.161
300.174
300.187
300.201
300.215
300.23
300.245
300.261
300.278
300.295
300.313
300.332
300.351
300.37
300.391
300.412
300.434
300.456
300.479
300.503
300.528
300.553
300.579
300.606
300.634
300.662
300.692
300.722
300.753
300.785
300.818
300.852
300.886
300.922
300.958
300.996
301.034
301.074
301.115
301.156
301.199
301.243
301.288
301.335
301.382
301.431
301.481
301.532
301.585
301.639
301.694
301.751
301.809
301.868
301.929
301.99
302.053
302.116
302.18
302.244
302.308
302.371
302.433
300.003
300.009
300.015
300.021
300.028
300.035
300.043
300.05
300.058
300.067
300.075
300.085
300.094
300.104
300.114
300.125
300.137
300.148
300.161
300.173
300.187
300.2
300.215
300.23
300.245
300.261
300.278
300.295
300.313
300.331
300.35
300.37
300.39
300.411
300.433
300.455
300.478
300.502
300.527
300.552
300.578
300.605
300.633
300.661
300.69
300.72
300.751
300.783
300.816
300.849
300.883
300.919
300.955
300.992
301.031
301.07
301.11
301.151
301.194
301.237
301.281
301.327
301.374
301.421
301.47
301.52
301.572
301.624
301.678
301.732
301.788
301.845
301.902
301.961
302.02
302.079
302.139
302.198
302.257
302.315
302.372
300.003
300.009
300.015
300.021
300.028
300.035
300.042
300.05
300.058
300.067
300.075
300.084
300.094
300.104
300.114
300.125
300.136
300.148
300.16
300.173
300.186
300.2
300.215
300.229
300.245
300.261
300.277
300.294
300.312
300.331
300.35
300.369
300.39
300.41
300.432
300.454
300.477
300.501
300.526
300.551
300.577
300.603
300.631
300.659
300.688
300.718
300.749
300.78
300.813
300.846
300.88
300.915
300.951
300.988
301.026
301.064
301.104
301.145
301.186
301.229
301.273
301.317
301.363
301.41
301.458
301.506
301.556
301.607
301.658
301.711
301.764
301.818
301.873
301.928
301.983
302.039
302.094
302.15
302.204
302.258
302.31
300.003
300.009
300.015
300.021
300.028
300.035
300.042
300.05
300.058
300.066
300.075
300.084
300.094
300.104
300.114
300.125
300.136
300.148
300.16
300.173
300.186
300.2
300.214
300.229
300.244
300.26
300.277
300.294
300.312
300.33
300.349
300.368
300.389
300.41
300.431
300.453
300.476
300.5
300.524
300.549
300.575
300.602
300.629
300.657
300.686
300.716
300.746
300.777
300.809
300.842
300.876
300.911
300.946
300.983
301.02
301.058
301.097
301.137
301.178
301.22
301.263
301.306
301.351
301.396
301.443
301.49
301.538
301.586
301.636
301.686
301.737
301.788
301.84
301.892
301.944
301.996
302.048
302.099
302.15
302.199
302.248
300.003
300.009
300.015
300.021
300.028
300.035
300.042
300.05
300.058
300.066
300.075
300.084
300.094
300.104
300.114
300.125
300.136
300.148
300.16
300.173
300.186
300.2
300.214
300.229
300.244
300.26
300.276
300.293
300.311
300.329
300.348
300.368
300.388
300.408
300.43
300.452
300.475
300.498
300.523
300.547
300.573
300.599
300.627
300.654
300.683
300.712
300.743
300.774
300.805
300.838
300.871
300.905
300.94
300.976
301.013
301.05
301.089
301.128
301.168
301.209
301.251
301.293
301.336
301.38
301.425
301.471
301.517
301.564
301.611
301.659
301.707
301.756
301.804
301.853
301.902
301.951
301.999
302.047
302.094
302.14
302.185
300.003
300.009
300.015
300.021
300.028
300.035
300.042
300.05
300.058
300.066
300.075
300.084
300.094
300.103
300.114
300.125
300.136
300.147
300.16
300.172
300.185
300.199
300.213
300.228
300.243
300.259
300.276
300.292
300.31
300.328
300.347
300.366
300.386
300.407
300.428
300.45
300.473
300.496
300.52
300.545
300.571
300.597
300.624
300.651
300.68
300.709
300.739
300.769
300.8
300.833
300.865
300.899
300.934
300.969
301.005
301.041
301.079
301.117
301.156
301.196
301.237
301.278
301.32
301.362
301.405
301.449
301.493
301.538
301.583
301.629
301.674
301.72
301.766
301.812
301.858
301.903
301.948
301.993
302.037
302.08
302.122
300.003
300.009
300.015
300.021
300.028
300.035
300.042
300.05
300.058
300.066
300.075
300.084
300.093
300.103
300.114
300.124
300.135
300.147
300.159
300.172
300.185
300.199
300.213
300.227
300.243
300.258
300.275
300.292
300.309
300.327
300.346
300.365
300.385
300.406
300.427
300.449
300.471
300.494
300.518
300.543
300.568
300.594
300.62
300.648
300.676
300.704
300.734
300.764
300.795
300.826
300.859
300.892
300.925
300.96
300.995
301.031
301.068
301.105
301.143
301.182
301.221
301.261
301.301
301.342
301.383
301.425
301.468
301.51
301.553
301.596
301.639
301.682
301.726
301.769
301.811
301.854
301.896
301.937
301.978
302.018
302.058
300.003
300.009
300.015
300.021
300.028
300.035
300.042
300.05
300.058
300.066
300.075
300.084
300.093
300.103
300.113
300.124
300.135
300.147
300.159
300.171
300.184
300.198
300.212
300.227
300.242
300.257
300.274
300.29
300.308
300.326
300.344
300.363
300.383
300.404
300.425
300.446
300.469
300.492
300.515
300.539
300.564
300.59
300.616
300.643
300.671
300.699
300.728
300.758
300.788
300.819
300.851
300.883
300.916
300.95
300.984
301.019
301.055
301.091
301.128
301.165
301.203
301.241
301.28
301.319
301.359
301.399
301.439
301.48
301.52
301.561
301.602
301.642
301.683
301.723
301.763
301.803
301.842
301.881
301.919
301.956
301.993
300.003
300.009
300.015
300.021
300.028
300.035
300.042
300.05
300.057
300.066
300.074
300.083
300.093
300.103
300.113
300.123
300.135
300.146
300.158
300.171
300.184
300.197
300.211
300.226
300.241
300.256
300.272
300.289
300.306
300.324
300.343
300.362
300.381
300.401
300.422
300.444
300.466
300.488
300.512
300.536
300.56
300.586
300.611
300.638
300.665
300.693
300.721
300.75
300.78
300.811
300.842
300.873
300.905
300.938
300.972
301.006
301.04
301.075
301.11
301.146
301.183
301.22
301.257
301.294
301.332
301.37
301.408
301.447
301.485
301.523
301.562
301.6
301.638
301.676
301.713
301.75
301.787
301.823
301.859
301.894
301.928
300.003
300.009
300.015
300.021
300.028
300.035
300.042
300.049
300.057
300.065
300.074
300.083
300.092
300.102
300.112
300.123
300.134
300.146
300.157
300.17
300.183
300.196
300.21
300.225
300.239
300.255
300.271
300.288
300.305
300.322
300.341
300.359
300.379
300.399
300.419
300.441
300.462
300.485
300.508
300.531
300.556
300.58
300.606
300.632
300.659
300.686
300.714
300.742
300.771
300.801
300.831
300.862
300.893
300.925
300.957
300.99
301.023
301.057
301.091
301.126
301.161
301.196
301.231
301.267
301.303
301.339
301.375
301.411
301.448
301.484
301.52
301.556
301.591
301.627
301.662
301.696
301.73
301.764
301.798
301.83
301.862
300.003
300.009
300.015
300.021
300.028
300.034
300.042
300.049
300.057
300.065
300.074
300.083
300.092
300.102
300.112
300.122
300.133
300.145
300.157
300.169
300.182
300.195
300.209
300.223
300.238
300.253
300.269
300.286
300.303
300.32
300.338
300.357
300.376
300.396
300.416
300.437
300.458
300.48
300.503
300.526
300.55
300.575
300.599
300.625
300.651
300.678
300.705
300.733
300.761
300.79
300.819
300.849
300.879
300.91
300.941
300.973
301.005
301.038
301.07
301.103
301.137
301.17
301.204
301.238
301.272
301.306
301.34
301.374
301.408
301.442
301.476
301.51
301.543
301.576
301.609
301.641
301.673
301.705
301.736
301.766
301.796
300.003
300.009
300.015
300.021
300.027
300.034
300.041
300.049
300.057
300.065
300.073
300.082
300.091
300.101
300.111
300.122
300.133
300.144
300.156
300.168
300.181
300.194
300.208
300.222
300.236
300.252
300.267
300.284
300.3
300.318
300.335
300.354
300.373
300.392
300.412
300.433
300.454
300.476
300.498
300.521
300.544
300.568
300.592
300.617
300.643
300.669
300.695
300.722
300.75
300.778
300.806
300.835
300.864
300.894
300.924
300.954
300.985
301.016
301.047
301.079
301.111
301.142
301.174
301.207
301.239
301.271
301.303
301.335
301.367
301.399
301.431
301.462
301.493
301.524
301.555
301.585
301.615
301.644
301.673
301.702
301.73
300.003
300.009
300.015
300.021
300.027
300.034
300.041
300.049
300.056
300.064
300.073
300.082
300.091
300.1
300.11
300.121
300.132
300.143
300.155
300.167
300.179
300.192
300.206
300.22
300.235
300.25
300.265
300.281
300.298
300.315
300.332
300.35
300.369
300.388
300.408
300.428
300.449
300.47
300.492
300.514
300.537
300.56
300.584
300.608
300.633
300.658
300.684
300.71
300.737
300.764
300.791
300.819
300.847
300.876
300.905
300.934
300.963
300.993
301.022
301.052
301.082
301.113
301.143
301.173
301.204
301.234
301.264
301.294
301.324
301.354
301.384
301.413
301.442
301.471
301.5
301.528
301.556
301.583
301.61
301.637
301.663
300.003
300.008
300.014
300.021
300.027
300.034
300.041
300.048
300.056
300.064
300.072
300.081
300.09
300.1
300.11
300.12
300.131
300.142
300.153
300.165
300.178
300.191
300.204
300.218
300.232
300.247
300.262
300.278
300.295
300.311
300.329
300.346
300.365
300.383
300.403
300.423
300.443
300.464
300.485
300.507
300.529
300.552
300.575
300.598
300.622
300.647
300.672
300.697
300.723
300.749
300.775
300.802
300.829
300.856
300.883
300.911
300.939
300.967
300.996
301.024
301.053
301.081
301.11
301.138
301.167
301.195
301.224
301.252
301.28
301.308
301.336
301.363
301.39
301.417
301.444
301.47
301.496
301.522
301.547
301.572
301.596
300.003
300.008
300.014
300.02
300.027
300.034
300.041
300.048
300.056
300.063
300.072
300.08
300.089
300.099
300.109
300.119
300.129
300.14
300.152
300.164
300.176
300.189
300.202
300.216
300.23
300.244
300.259
300.275
300.291
300.307
300.324
300.342
300.36
300.378
300.397
300.416
300.436
300.456
300.477
300.498
300.52
300.542
300.564
300.587
300.61
300.634
300.658
300.682
300.707
300.732
300.757
300.783
300.809
300.835
300.861
300.887
300.914
300.94
300.967
300.994
301.021
301.048
301.075
301.102
301.128
301.155
301.182
301.208
301.234
301.26
301.286
301.312
301.337
301.362
301.387
301.412
301.436
301.46
301.483
301.506
301.529
300.003
300.008
300.014
300.02
300.027
300.033
300.04
300.047
300.055
300.063
300.071
300.08
300.089
300.098
300.108
300.118
300.128
300.139
300.15
300.162
300.174
300.187
300.2
300.213
300.227
300.241
300.256
300.271
300.287
300.303
300.32
300.337
300.354
300.372
300.391
300.409
300.429
300.448
300.468
300.489
300.51
300.531
300.553
300.575
300.597
300.62
300.643
300.666
300.69
300.714
300.738
300.762
300.787
300.812
300.836
300.861
300.887
300.912
300.937
300.962
300.988
301.013
301.038
301.063
301.089
301.114
301.138
301.163
301.188
301.212
301.236
301.26
301.284
301.307
301.33
301.353
301.375
301.398
301.42
301.441
301.462
300.003
300.008
300.014
300.02
300.026
300.033
300.04
300.047
300.054
300.062
300.07
300.079
300.088
300.097
300.106
300.116
300.127
300.137
300.148
300.16
300.172
300.184
300.197
300.21
300.224
300.238
300.252
300.267
300.282
300.298
300.314
300.331
300.348
300.366
300.383
300.402
300.42
300.439
300.459
300.479
300.499
300.519
300.54
300.561
300.583
300.605
300.627
300.649
300.672
300.694
300.717
300.74
300.764
300.787
300.811
300.834
300.858
300.882
300.906
300.929
300.953
300.977
301
301.024
301.048
301.071
301.094
301.117
301.14
301.163
301.185
301.207
301.229
301.251
301.273
301.294
301.315
301.335
301.356
301.376
301.396
300.003
300.008
300.014
300.02
300.026
300.033
300.039
300.046
300.054
300.061
300.069
300.078
300.086
300.095
300.105
300.115
300.125
300.135
300.146
300.157
300.169
300.181
300.194
300.207
300.22
300.234
300.248
300.262
300.277
300.293
300.308
300.325
300.341
300.358
300.375
300.393
300.411
300.43
300.448
300.467
300.487
300.506
300.526
300.547
300.567
300.588
300.609
300.63
300.652
300.673
300.695
300.717
300.739
300.761
300.784
300.806
300.828
300.85
300.873
300.895
300.917
300.939
300.962
300.984
301.006
301.027
301.049
301.07
301.092
301.113
301.134
301.154
301.175
301.195
301.215
301.235
301.254
301.273
301.292
301.311
301.329
300.003
300.008
300.014
300.02
300.026
300.032
300.039
300.046
300.053
300.06
300.068
300.077
300.085
300.094
300.103
300.113
300.123
300.133
300.144
300.155
300.166
300.178
300.19
300.203
300.216
300.229
300.243
300.257
300.272
300.287
300.302
300.318
300.334
300.35
300.367
300.384
300.401
300.419
300.437
300.455
300.474
300.493
300.512
300.531
300.551
300.57
300.59
300.611
300.631
300.651
300.672
300.693
300.713
300.734
300.755
300.776
300.797
300.818
300.839
300.86
300.88
300.901
300.922
300.942
300.963
300.983
301.003
301.023
301.043
301.062
301.082
301.101
301.12
301.139
301.157
301.176
301.194
301.212
301.229
301.246
301.263
300.003
300.008
300.013
300.019
300.025
300.032
300.038
300.045
300.052
300.059
300.067
300.075
300.084
300.092
300.101
300.111
300.121
300.131
300.141
300.152
300.163
300.175
300.186
300.199
300.211
300.224
300.238
300.251
300.266
300.28
300.295
300.31
300.325
300.341
300.357
300.373
300.39
300.407
300.424
300.442
300.46
300.478
300.496
300.514
300.533
300.552
300.57
300.59
300.609
300.628
300.647
300.667
300.686
300.706
300.726
300.745
300.765
300.784
300.804
300.823
300.843
300.862
300.881
300.9
300.919
300.938
300.957
300.975
300.994
301.012
301.03
301.048
301.065
301.083
301.1
301.117
301.134
301.15
301.166
301.183
301.198
300.003
300.008
300.013
300.019
300.025
300.031
300.037
300.044
300.051
300.058
300.066
300.074
300.082
300.091
300.099
300.109
300.118
300.128
300.138
300.149
300.159
300.171
300.182
300.194
300.206
300.219
300.232
300.245
300.259
300.273
300.287
300.301
300.316
300.331
300.347
300.362
300.378
300.395
300.411
300.428
300.445
300.462
300.479
300.496
300.514
300.532
300.55
300.568
300.586
300.604
300.622
300.64
300.659
300.677
300.695
300.714
300.732
300.75
300.768
300.786
300.804
300.822
300.84
300.858
300.876
300.893
300.91
300.928
300.945
300.962
300.978
300.995
301.011
301.027
301.043
301.059
301.074
301.089
301.105
301.119
301.134
300.003
300.008
300.013
300.019
300.024
300.03
300.037
300.043
300.05
300.057
300.065
300.072
300.08
300.089
300.097
300.106
300.115
300.125
300.135
300.145
300.156
300.166
300.178
300.189
300.201
300.213
300.226
300.238
300.251
300.265
300.278
300.292
300.307
300.321
300.336
300.351
300.366
300.381
300.397
300.413
300.429
300.445
300.461
300.478
300.494
300.511
300.528
300.545
300.562
300.579
300.596
300.613
300.63
300.647
300.664
300.681
300.698
300.715
300.732
300.749
300.766
300.782
300.799
300.816
300.832
300.848
300.864
300.88
300.896
300.911
300.927
300.942
300.957
300.972
300.987
301.001
301.015
301.03
301.044
301.057
301.071
300.002
300.007
300.013
300.018
300.024
300.03
300.036
300.042
300.049
300.056
300.063
300.071
300.078
300.086
300.095
300.103
300.112
300.122
300.131
300.141
300.151
300.162
300.173
300.184
300.195
300.207
300.219
300.231
300.244
300.256
300.269
300.283
300.296
300.31
300.324
300.338
300.353
300.367
300.382
300.397
300.412
300.427
300.443
300.458
300.474
300.49
300.505
300.521
300.537
300.553
300.569
300.585
300.601
300.617
300.633
300.649
300.664
300.68
300.696
300.712
300.727
300.743
300.758
300.773
300.788
300.803
300.818
300.833
300.847
300.862
300.876
300.89
300.904
300.918
300.931
300.945
300.958
300.971
300.984
300.996
301.009
300.002
300.007
300.012
300.018
300.023
300.029
300.035
300.041
300.048
300.054
300.061
300.069
300.076
300.084
300.092
300.101
300.109
300.118
300.127
300.137
300.147
300.157
300.167
300.178
300.189
300.2
300.212
300.223
300.235
300.247
300.26
300.273
300.285
300.298
300.312
300.325
300.339
300.353
300.367
300.381
300.395
300.409
300.424
300.438
300.453
300.468
300.482
300.497
300.512
300.527
300.542
300.557
300.571
300.586
300.601
300.616
300.631
300.645
300.66
300.674
300.689
300.703
300.717
300.731
300.745
300.759
300.773
300.786
300.8
300.813
300.826
300.839
300.852
300.864
300.877
300.889
300.902
300.914
300.925
300.937
300.949
300.002
300.007
300.012
300.017
300.023
300.028
300.034
300.04
300.046
300.053
300.06
300.067
300.074
300.082
300.089
300.097
300.106
300.115
300.123
300.133
300.142
300.152
300.162
300.172
300.182
300.193
300.204
300.215
300.227
300.238
300.25
300.262
300.274
300.287
300.299
300.312
300.325
300.338
300.351
300.364
300.377
300.391
300.404
300.418
300.432
300.445
300.459
300.473
300.487
300.501
300.515
300.528
300.542
300.556
300.57
300.583
300.597
300.61
300.624
300.637
300.65
300.664
300.677
300.69
300.703
300.715
300.728
300.741
300.753
300.765
300.777
300.789
300.801
300.813
300.824
300.836
300.847
300.858
300.869
300.88
300.89
300.002
300.007
300.012
300.017
300.022
300.027
300.033
300.039
300.045
300.051
300.058
300.065
300.072
300.079
300.086
300.094
300.102
300.111
300.119
300.128
300.137
300.146
300.156
300.166
300.176
300.186
300.196
300.207
300.218
300.229
300.24
300.251
300.263
300.274
300.286
300.298
300.31
300.322
300.335
300.347
300.36
300.372
300.385
300.398
300.411
300.423
300.436
300.449
300.462
300.475
300.488
300.5
300.513
300.526
300.539
300.551
300.564
300.576
300.589
300.601
300.613
300.625
300.638
300.65
300.661
300.673
300.685
300.696
300.708
300.719
300.73
300.741
300.752
300.763
300.773
300.784
300.794
300.804
300.814
300.824
300.834
300.002
300.007
300.011
300.016
300.021
300.026
300.032
300.038
300.043
300.049
300.056
300.062
300.069
300.076
300.083
300.091
300.099
300.107
300.115
300.123
300.132
300.141
300.15
300.159
300.169
300.178
300.188
300.198
300.208
300.219
300.229
300.24
300.251
300.262
300.273
300.284
300.296
300.307
300.319
300.331
300.342
300.354
300.366
300.378
300.39
300.401
300.413
300.425
300.437
300.449
300.461
300.473
300.485
300.497
300.508
300.52
300.532
300.543
300.555
300.566
300.577
300.589
300.6
300.611
300.622
300.633
300.643
300.654
300.664
300.675
300.685
300.695
300.705
300.715
300.725
300.734
300.744
300.753
300.762
300.772
300.781
300.002
300.006
300.011
300.016
300.02
300.025
300.031
300.036
300.042
300.048
300.054
300.06
300.067
300.073
300.08
300.088
300.095
300.103
300.11
300.118
300.127
300.135
300.144
300.153
300.162
300.171
300.18
300.19
300.199
300.209
300.219
300.229
300.24
300.25
300.26
300.271
300.282
300.292
300.303
300.314
300.325
300.336
300.347
300.358
300.369
300.38
300.391
300.403
300.414
300.425
300.436
300.447
300.458
300.469
300.479
300.49
300.501
300.512
300.522
300.533
300.543
300.554
300.564
300.574
300.584
300.594
300.604
300.614
300.623
300.633
300.642
300.652
300.661
300.67
300.679
300.688
300.697
300.705
300.714
300.722
300.73
300.002
300.006
300.011
300.015
300.02
300.025
300.03
300.035
300.04
300.046
300.052
300.058
300.064
300.071
300.077
300.084
300.091
300.099
300.106
300.114
300.122
300.13
300.138
300.146
300.155
300.164
300.172
300.181
300.191
300.2
300.209
300.219
300.229
300.238
300.248
300.258
300.268
300.278
300.288
300.299
300.309
300.319
300.329
300.34
300.35
300.36
300.371
300.381
300.391
300.402
300.412
300.422
300.432
300.442
300.452
300.462
300.472
300.482
300.492
300.502
300.511
300.521
300.53
300.54
300.549
300.558
300.567
300.576
300.585
300.594
300.603
300.611
300.62
300.628
300.637
300.645
300.653
300.661
300.669
300.676
300.684
300.002
300.006
300.01
300.015
300.019
300.024
300.029
300.034
300.039
300.044
300.05
300.056
300.062
300.068
300.075
300.081
300.088
300.095
300.102
300.109
300.117
300.125
300.132
300.14
300.148
300.157
300.165
300.174
300.182
300.191
300.2
300.209
300.218
300.227
300.237
300.246
300.256
300.265
300.275
300.284
300.294
300.303
300.313
300.323
300.332
300.342
300.352
300.361
300.371
300.38
300.39
300.399
300.409
300.418
300.428
300.437
300.446
300.455
300.464
300.473
300.482
300.491
300.5
300.509
300.517
300.526
300.534
300.543
300.551
300.559
300.567
300.575
300.583
300.591
300.598
300.606
300.613
300.621
300.628
300.635
300.642
300.002
300.006
300.01
300.014
300.018
300.023
300.028
300.033
300.038
300.043
300.048
300.054
300.06
300.066
300.072
300.078
300.085
300.091
300.098
300.105
300.113
300.12
300.127
300.135
300.143
300.151
300.159
300.167
300.175
300.183
300.192
300.2
300.209
300.218
300.227
300.235
300.244
300.253
300.262
300.271
300.28
300.289
300.298
300.307
300.317
300.326
300.335
300.344
300.353
300.362
300.371
300.38
300.388
300.397
300.406
300.415
300.423
300.432
300.44
300.449
300.457
300.465
300.474
300.482
300.49
300.498
300.506
300.513
300.521
300.529
300.536
300.544
300.551
300.558
300.565
300.572
300.579
300.586
300.593
300.599
300.606
300.002
300.006
300.01
300.014
300.018
300.022
300.027
300.032
300.037
300.042
300.047
300.052
300.058
300.064
300.07
300.076
300.082
300.089
300.095
300.102
300.109
300.116
300.123
300.13
300.138
300.145
300.153
300.161
300.169
300.177
300.185
300.193
300.201
300.21
300.218
300.227
300.235
300.243
300.252
300.261
300.269
300.278
300.286
300.295
300.304
300.312
300.321
300.329
300.338
300.346
300.355
300.363
300.372
300.38
300.388
300.396
300.405
300.413
300.421
300.429
300.436
300.444
300.452
300.46
300.467
300.475
300.482
300.489
300.497
300.504
300.511
300.518
300.525
300.532
300.538
300.545
300.551
300.558
300.564
300.57
300.577
300.002
300.005
300.009
300.013
300.017
300.022
300.026
300.031
300.036
300.041
300.046
300.051
300.057
300.062
300.068
300.074
300.08
300.086
300.093
300.099
300.106
300.113
300.12
300.127
300.134
300.142
300.149
300.157
300.164
300.172
300.18
300.188
300.196
300.204
300.212
300.22
300.228
300.236
300.245
300.253
300.261
300.269
300.278
300.286
300.294
300.302
300.311
300.319
300.327
300.335
300.343
300.351
300.359
300.367
300.375
300.383
300.391
300.399
300.406
300.414
300.421
300.429
300.436
300.444
300.451
300.458
300.465
300.472
300.479
300.486
300.493
300.499
300.506
300.512
300.519
300.525
300.531
300.537
300.543
300.549
300.555
300.002
300.005
300.009
300.013
300.017
300.022
300.026
300.031
300.035
300.04
300.045
300.051
300.056
300.061
300.067
300.073
300.079
300.085
300.092
300.098
300.105
300.111
300.118
300.125
300.132
300.14
300.147
300.154
300.162
300.169
300.177
300.185
300.193
300.2
300.208
300.216
300.224
300.232
300.24
300.248
300.257
300.265
300.273
300.281
300.289
300.297
300.305
300.313
300.321
300.329
300.337
300.345
300.353
300.36
300.368
300.376
300.383
300.391
300.398
300.406
300.413
300.42
300.428
300.435
300.442
300.449
300.456
300.463
300.469
300.476
300.483
300.489
300.495
300.502
300.508
300.514
300.52
300.526
300.532
300.538
300.544
303.022
303.152
303.229
303.302
303.365
303.417
303.452
303.491
303.531
303.568
303.6
303.634
303.669
303.703
303.737
303.77
303.801
303.828
303.858
303.887
303.916
303.946
303.975
304.004
304.033
304.062
304.089
304.117
304.145
304.171
304.198
304.225
304.251
304.277
304.303
304.328
304.353
304.378
304.402
304.427
304.451
304.474
304.499
304.526
304.552
304.576
304.599
304.623
304.648
304.673
304.696
304.718
304.741
304.765
304.789
304.814
304.838
304.863
304.887
304.909
304.928
304.95
304.972
304.994
305.017
305.04
305.062
305.084
305.106
305.128
305.149
305.17
305.191
305.212
305.232
305.252
305.272
305.292
305.311
305.332
305.355
305.376
305.395
305.413
305.43
305.447
305.466
305.487
305.505
305.522
305.537
305.555
305.574
305.59
305.608
305.627
305.644
305.658
305.675
305.691
305.704
305.72
305.733
305.748
305.763
305.779
305.793
305.804
305.817
305.828
305.84
305.853
305.866
305.879
305.89
305.899
305.909
305.92
305.93
305.939
305.946
305.954
305.962
305.969
305.976
305.98
305.985
305.989
305.993
305.996
305.998
306
306
305.998
305.996
305.993
305.988
305.981
305.974
305.965
305.954
305.941
305.927
305.911
305.893
305.872
305.85
305.824
305.795
305.761
305.72
305.679
305.637
305.589
305.536
305.475
305.409
305.298
305.196
305.068
304.901
302.921
303.035
303.123
303.199
303.264
303.319
303.366
303.409
303.451
303.491
303.527
303.563
303.599
303.634
303.669
303.702
303.734
303.765
303.795
303.826
303.856
303.886
303.916
303.945
303.974
304.003
304.032
304.06
304.088
304.115
304.142
304.169
304.196
304.222
304.248
304.274
304.3
304.325
304.35
304.375
304.4
304.424
304.449
304.475
304.501
304.525
304.549
304.574
304.599
304.623
304.647
304.67
304.693
304.717
304.742
304.766
304.79
304.815
304.838
304.861
304.882
304.904
304.926
304.949
304.971
304.994
305.017
305.039
305.061
305.083
305.105
305.126
305.147
305.168
305.188
305.209
305.229
305.249
305.269
305.29
305.312
305.333
305.352
305.371
305.389
305.406
305.425
305.445
305.464
305.481
305.497
305.515
305.533
305.55
305.568
305.586
305.603
305.619
305.635
305.651
305.665
305.681
305.694
305.709
305.724
305.74
305.754
305.766
305.779
305.79
305.802
305.815
305.828
305.841
305.852
305.862
305.872
305.883
305.893
305.902
305.909
305.917
305.925
305.932
305.939
305.944
305.949
305.953
305.957
305.96
305.962
305.963
305.964
305.962
305.96
305.957
305.952
305.946
305.938
305.929
305.918
305.906
305.892
305.875
305.857
305.837
305.813
305.787
305.758
305.724
305.684
305.642
305.599
305.55
305.495
305.433
305.362
305.255
305.148
305.013
304.83
302.839
302.939
303.025
303.1
303.167
303.225
303.277
303.324
303.369
303.41
303.45
303.488
303.526
303.562
303.597
303.632
303.665
303.697
303.729
303.76
303.791
303.822
303.852
303.882
303.912
303.941
303.97
303.999
304.027
304.055
304.083
304.11
304.137
304.164
304.191
304.217
304.243
304.269
304.294
304.32
304.345
304.37
304.395