/*--------------------------------*- C++ -*----------------------------------*\
| =========                 |                                                 |
| \\      /  F ield         | OpenFOAM: The Open Source CFD Toolbox           |
|  \\    /   O peration     | Version:  2106                                  |
|   \\  /    A nd           | Website:  www.openfoam.com                      |
|    \\/     M anipulation  |                                                 |
\*---------------------------------------------------------------------------*/
FoamFile
{
    version     2.0;
    format      ascii;
    arch        "LSB;label=32;scalar=64";
    class       volVectorField;
    location    "4.4";
    object      U;
}
// * * * * * * * * * * * * * * * * * * * * * * * * * * * * * * * * * * * * * //

dimensions      [0 1 -1 0 0 0 0];

internalField   nonuniform List<vector> 
12013
(
(0.100032 -8.95133e-06 0)
(0.100163 -1.6549e-05 0)
(0.100376 -2.35838e-05 0)
(0.100651 -3.0061e-05 0)
(0.100982 -3.61402e-05 0)
(0.101365 -4.19139e-05 0)
(0.101794 -4.74404e-05 0)
(0.102265 -5.27671e-05 0)
(0.102775 -5.793e-05 0)
(0.10332 -6.29573e-05 0)
(0.103899 -6.78709e-05 0)
(0.104508 -7.26892e-05 0)
(0.105145 -7.74269e-05 0)
(0.105809 -8.2095e-05 0)
(0.106498 -8.67031e-05 0)
(0.10721 -9.12585e-05 0)
(0.107943 -9.57668e-05 0)
(0.108696 -0.000100232 0)
(0.109467 -0.000104657 0)
(0.110256 -0.000109044 0)
(0.11106 -0.000113393 0)
(0.11188 -0.000117704 0)
(0.112713 -0.000121976 0)
(0.113559 -0.000126207 0)
(0.114416 -0.000130394 0)
(0.115283 -0.000134533 0)
(0.11616 -0.000138622 0)
(0.117045 -0.000142654 0)
(0.117938 -0.000146625 0)
(0.118836 -0.000150528 0)
(0.11974 -0.000154357 0)
(0.120648 -0.000158105 0)
(0.12156 -0.000161763 0)
(0.122474 -0.000165323 0)
(0.123389 -0.000168776 0)
(0.124304 -0.00017211 0)
(0.125219 -0.000175315 0)
(0.126132 -0.000178379 0)
(0.127043 -0.000181289 0)
(0.127949 -0.000184029 0)
(0.128851 -0.000186584 0)
(0.129748 -0.000188936 0)
(0.130637 -0.000191066 0)
(0.131519 -0.000192952 0)
(0.132391 -0.000194568 0)
(0.133253 -0.000195889 0)
(0.134104 -0.000196883 0)
(0.134942 -0.000197515 0)
(0.135766 -0.000197747 0)
(0.136574 -0.000197532 0)
(0.137366 -0.000196818 0)
(0.138138 -0.000195547 0)
(0.13889 -0.000193649 0)
(0.13962 -0.000191043 0)
(0.140326 -0.000187634 0)
(0.141005 -0.000183313 0)
(0.141654 -0.000177947 0)
(0.142272 -0.000171378 0)
(0.142854 -0.000163419 0)
(0.143397 -0.000153839 0)
(0.143897 -0.000142359 0)
(0.144349 -0.000128633 0)
(0.144747 -0.000112232 0)
(0.145085 -9.26144e-05 0)
(0.145354 -6.90889e-05 0)
(0.145545 -4.07646e-05 0)
(0.145646 -6.47416e-06 0)
(0.145642 3.53514e-05 0)
(0.145514 8.68936e-05 0)
(0.145239 0.000151186 0)
(0.144785 0.000232564 0)
(0.14411 0.0003374 0)
(0.143156 0.000475343 0)
(0.141843 0.000661464 0)
(0.140051 0.000920102 0)
(0.137604 0.0012919 0)
(0.134231 0.00184711 0)
(0.129481 0.00271453 0)
(0.12261 0.00416969 0)
(0.112606 0.00701528 0)
(0.101141 0.0149895 0)
(0.10003 -2.73333e-05 0)
(0.100161 -5.07403e-05 0)
(0.100372 -7.23462e-05 0)
(0.100646 -9.22247e-05 0)
(0.100977 -0.000110883 0)
(0.101359 -0.000128601 0)
(0.101787 -0.000145559 0)
(0.102257 -0.000161903 0)
(0.102766 -0.000177743 0)
(0.103311 -0.000193166 0)
(0.103888 -0.00020824 0)
(0.104496 -0.00022302 0)
(0.105133 -0.000237551 0)
(0.105796 -0.000251868 0)
(0.106483 -0.000266001 0)
(0.107194 -0.000279971 0)
(0.107926 -0.000293795 0)
(0.108677 -0.000307488 0)
(0.109448 -0.000321056 0)
(0.110235 -0.000334505 0)
(0.111038 -0.000347838 0)
(0.111856 -0.000361054 0)
(0.112688 -0.000374148 0)
(0.113532 -0.000387116 0)
(0.114388 -0.000399948 0)
(0.115254 -0.000412634 0)
(0.116129 -0.000425162 0)
(0.117012 -0.000437518 0)
(0.117903 -0.000449684 0)
(0.1188 -0.000461642 0)
(0.119702 -0.000473372 0)
(0.120608 -0.000484851 0)
(0.121517 -0.000496055 0)
(0.122429 -0.000506957 0)
(0.123342 -0.000517528 0)
(0.124255 -0.000527737 0)
(0.125168 -0.000537549 0)
(0.126078 -0.000546927 0)
(0.126987 -0.000555831 0)
(0.127891 -0.000564214 0)
(0.12879 -0.00057203 0)
(0.129684 -0.000579223 0)
(0.130571 -0.000585734 0)
(0.13145 -0.000591495 0)
(0.13232 -0.000596432 0)
(0.133179 -0.000600462 0)
(0.134027 -0.00060349 0)
(0.134862 -0.000605411 0)
(0.135683 -0.000606103 0)
(0.136489 -0.000605428 0)
(0.137277 -0.000603228 0)
(0.138047 -0.000599321 0)
(0.138796 -0.000593495 0)
(0.139523 -0.000585506 0)
(0.140226 -0.000575065 0)
(0.140903 -0.000561834 0)
(0.14155 -0.000545412 0)
(0.142165 -0.000525322 0)
(0.142745 -0.00050099 0)
(0.143287 -0.000471722 0)
(0.143786 -0.000436668 0)
(0.144238 -0.000394786 0)
(0.144637 -0.000344778 0)
(0.144976 -0.00028501 0)
(0.145249 -0.00021341 0)
(0.145445 -0.000127307 0)
(0.145555 -2.32171e-05 0)
(0.145563 0.0001035 0)
(0.145453 0.000259205 0)
(0.145204 0.000452703 0)
(0.144788 0.000696439 0)
(0.14417 0.00100844 0)
(0.143302 0.00141548 0)
(0.142122 0.00195837 0)
(0.140544 0.00270094 0)
(0.138452 0.00374517 0)
(0.135691 0.0052563 0)
(0.132047 0.00750355 0)
(0.127263 0.0109273 0)
(0.121358 0.0161591 0)
(0.116464 0.0234657 0)
(0.100027 -4.64661e-05 0)
(0.100157 -8.7039e-05 0)
(0.100366 -0.000124251 0)
(0.100639 -0.000158476 0)
(0.100968 -0.000190593 0)
(0.101348 -0.000221085 0)
(0.101774 -0.000250265 0)
(0.102243 -0.000278384 0)
(0.10275 -0.000305634 0)
(0.103293 -0.000332162 0)
(0.103868 -0.000358089 0)
(0.104474 -0.000383508 0)
(0.105109 -0.000408496 0)
(0.10577 -0.000433115 0)
(0.106455 -0.000457414 0)
(0.107163 -0.000481431 0)
(0.107893 -0.000505196 0)
(0.108642 -0.000528731 0)
(0.109409 -0.000552052 0)
(0.110194 -0.000575165 0)
(0.110995 -0.000598077 0)
(0.11181 -0.000620783 0)
(0.112639 -0.00064328 0)
(0.11348 -0.000665556 0)
(0.114332 -0.000687597 0)
(0.115195 -0.000709385 0)
(0.116066 -0.000730899 0)
(0.116946 -0.000752112 0)
(0.117833 -0.000772998 0)
(0.118726 -0.000793524 0)
(0.119624 -0.000813654 0)
(0.120526 -0.000833351 0)
(0.121432 -0.000852571 0)
(0.122339 -0.00087127 0)
(0.123248 -0.000889396 0)
(0.124156 -0.000906897 0)
(0.125064 -0.000923713 0)
(0.12597 -0.000939779 0)
(0.126874 -0.000955027 0)
(0.127773 -0.000969379 0)
(0.128667 -0.00098275 0)
(0.129556 -0.00099505 0)
(0.130437 -0.00100617 0)
(0.131311 -0.00101601 0)
(0.132175 -0.00102442 0)
(0.133029 -0.00103128 0)
(0.133871 -0.00103641 0)
(0.134701 -0.00103964 0)
(0.135516 -0.00104076 0)
(0.136315 -0.00103954 0)
(0.137098 -0.0010357 0)
(0.137862 -0.00102894 0)
(0.138606 -0.00101889 0)
(0.139327 -0.00100514 0)
(0.140024 -0.00098721 0)
(0.140695 -0.000964517 0)
(0.141337 -0.000936389 0)
(0.141948 -0.00090202 0)
(0.142524 -0.000860447 0)
(0.143063 -0.000810505 0)
(0.143559 -0.000750781 0)
(0.14401 -0.000679538 0)
(0.144409 -0.000594626 0)
(0.144751 -0.000493357 0)
(0.145029 -0.000372335 0)
(0.145234 -0.000227219 0)
(0.145357 -5.23935e-05 0)
(0.145387 0.000159511 0)
(0.145308 0.000418416 0)
(0.145103 0.000737842 0)
(0.144752 0.00113648 0)
(0.144229 0.00164061 0)
(0.143502 0.00228791 0)
(0.142534 0.00313318 0)
(0.141282 0.00425712 0)
(0.139703 0.00577909 0)
(0.137764 0.00787331 0)
(0.135468 0.0107838 0)
(0.132919 0.0148215 0)
(0.130518 0.0202319 0)
(0.12944 0.0264519 0)
(0.100025 -6.61876e-05 0)
(0.100152 -0.000125347 0)
(0.100359 -0.000179239 0)
(0.100628 -0.000228833 0)
(0.100955 -0.000275352 0)
(0.101332 -0.0003195 0)
(0.101756 -0.00036174 0)
(0.102222 -0.000402436 0)
(0.102726 -0.000441867 0)
(0.103266 -0.000480249 0)
(0.103839 -0.000517754 0)
(0.104442 -0.000554519 0)
(0.105073 -0.000590657 0)
(0.105731 -0.000626256 0)
(0.106412 -0.000661386 0)
(0.107117 -0.000696105 0)
(0.107843 -0.000730455 0)
(0.108588 -0.000764468 0)
(0.109352 -0.000798165 0)
(0.110132 -0.000831559 0)
(0.110929 -0.000864655 0)
(0.111739 -0.000897451 0)
(0.112564 -0.000929938 0)
(0.1134 -0.0009621 0)
(0.114247 -0.000993918 0)
(0.115105 -0.00102537 0)
(0.115971 -0.00105641 0)
(0.116846 -0.00108701 0)
(0.117727 -0.00111714 0)
(0.118614 -0.00114674 0)
(0.119506 -0.00117576 0)
(0.120402 -0.00120415 0)
(0.121301 -0.00123184 0)
(0.122202 -0.00125877 0)
(0.123104 -0.00128487 0)
(0.124006 -0.00131006 0)
(0.124907 -0.00133425 0)
(0.125806 -0.00135735 0)
(0.126702 -0.00137926 0)
(0.127594 -0.00139987 0)
(0.128481 -0.00141906 0)
(0.129361 -0.00143669 0)
(0.130235 -0.00145262 0)
(0.1311 -0.00146667 0)
(0.131956 -0.00147868 0)
(0.132802 -0.00148843 0)
(0.133635 -0.00149569 0)
(0.134456 -0.0015002 0)
(0.135263 -0.00150167 0)
(0.136054 -0.00149977 0)
(0.136828 -0.0014941 0)
(0.137583 -0.00148422 0)
(0.138318 -0.00146963 0)
(0.139031 -0.00144974 0)
(0.13972 -0.00142386 0)
(0.140383 -0.00139117 0)
(0.141018 -0.00135074 0)
(0.141622 -0.00130143 0)
(0.142193 -0.00124191 0)
(0.142726 -0.00117054 0)
(0.14322 -0.00108538 0)
(0.143669 -0.000984047 0)
(0.144069 -0.000863599 0)
(0.144415 -0.000720399 0)
(0.144702 -0.000549887 0)
(0.144921 -0.0003463 0)
(0.145066 -0.00010228 0)
(0.145126 0.000191631 0)
(0.145092 0.000547864 0)
(0.144952 0.000982975 0)
(0.144692 0.00151914 0)
(0.144298 0.00218634 0)
(0.143755 0.0030255 0)
(0.143052 0.0040926 0)
(0.142185 0.00546391 0)
(0.141165 0.00724145 0)
(0.140038 0.0095551 0)
(0.138909 0.0125519 0)
(0.137985 0.0163495 0)
(0.137626 0.0208851 0)
(0.138341 0.0255005 0)
(0.100022 -8.65057e-05 0)
(0.100147 -0.000165594 0)
(0.10035 -0.000237278 0)
(0.100616 -0.000303317 0)
(0.100939 -0.000365236 0)
(0.101313 -0.000423975 0)
(0.101733 -0.000480159 0)
(0.102195 -0.000534277 0)
(0.102695 -0.0005867 0)
(0.103231 -0.000637717 0)
(0.1038 -0.000687558 0)
(0.104399 -0.000736407 0)
(0.105026 -0.000784413 0)
(0.105679 -0.000831693 0)
(0.106356 -0.000878344 0)
(0.107055 -0.000924438 0)
(0.107776 -0.000970034 0)
(0.108516 -0.00101517 0)
(0.109275 -0.00105989 0)
(0.110049 -0.00110419 0)
(0.11084 -0.00114808 0)
(0.111645 -0.00119157 0)
(0.112463 -0.00123464 0)
(0.113293 -0.00127727 0)
(0.114133 -0.00131943 0)
(0.114984 -0.00136109 0)
(0.115843 -0.00140221 0)
(0.11671 -0.00144273 0)
(0.117584 -0.0014826 0)
(0.118463 -0.00152177 0)
(0.119348 -0.00156015 0)
(0.120235 -0.00159769 0)
(0.121126 -0.00163429 0)
(0.122018 -0.00166987 0)
(0.122911 -0.00170433 0)
(0.123804 -0.00173757 0)
(0.124695 -0.00176947 0)
(0.125585 -0.00179992 0)
(0.126471 -0.00182877 0)
(0.127353 -0.00185589 0)
(0.128229 -0.00188111 0)
(0.129099 -0.00190425 0)
(0.129962 -0.00192513 0)
(0.130817 -0.00194351 0)
(0.131662 -0.00195917 0)
(0.132496 -0.00197184 0)
(0.133319 -0.0019812 0)
(0.134128 -0.00198692 0)
(0.134923 -0.00198862 0)
(0.135703 -0.00198586 0)
(0.136466 -0.00197813 0)
(0.13721 -0.00196487 0)
(0.137934 -0.00194541 0)
(0.138636 -0.001919 0)
(0.139315 -0.00188474 0)
(0.139969 -0.00184162 0)
(0.140594 -0.00178841 0)
(0.14119 -0.00172368 0)
(0.141754 -0.00164574 0)
(0.142282 -0.00155256 0)
(0.142772 -0.0014417 0)
(0.143221 -0.00131021 0)
(0.143624 -0.00115451 0)
(0.143977 -0.00097018 0)
(0.144275 -0.000751771 0)
(0.144515 -0.00049249 0)
(0.144689 -0.000183824 0)
(0.144791 0.000184908 0)
(0.144816 0.000627287 0)
(0.144757 0.00116086 0)
(0.144608 0.00180823 0)
(0.144367 0.00259854 0)
(0.144034 0.0035692 0)
(0.143616 0.00476776 0)
(0.143134 0.00625327 0)
(0.142631 0.0080955 0)
(0.142181 0.0103687 0)
(0.141906 0.0131325 0)
(0.141987 0.0163857 0)
(0.142656 0.0199713 0)
(0.144109 0.0234157 0)
(0.10002 -0.000107429 0)
(0.100142 -0.000207715 0)
(0.100341 -0.000298328 0)
(0.100602 -0.000381919 0)
(0.100921 -0.000460284 0)
(0.10129 -0.000534596 0)
(0.101705 -0.000605655 0)
(0.102162 -0.00067408 0)
(0.102658 -0.000740343 0)
(0.103189 -0.000804812 0)
(0.103752 -0.000867779 0)
(0.104345 -0.000929477 0)
(0.104967 -0.000990094 0)
(0.105614 -0.00104978 0)
(0.106285 -0.00110866 0)
(0.106979 -0.00116682 0)
(0.107693 -0.00122434 0)
(0.108426 -0.00128127 0)
(0.109178 -0.00133764 0)
(0.109945 -0.00139348 0)
(0.110728 -0.0014488 0)
(0.111526 -0.00150359 0)
(0.112335 -0.00155783 0)
(0.113157 -0.00161151 0)
(0.113989 -0.00166458 0)
(0.114831 -0.001717 0)
(0.115682 -0.00176871 0)
(0.116539 -0.00181966 0)
(0.117404 -0.00186978 0)
(0.118273 -0.00191898 0)
(0.119147 -0.00196719 0)
(0.120025 -0.0020143 0)
(0.120905 -0.00206022 0)
(0.121786 -0.00210483 0)
(0.122668 -0.00214801 0)
(0.123549 -0.00218964 0)
(0.124429 -0.00222956 0)
(0.125306 -0.00226762 0)
(0.12618 -0.00230366 0)
(0.127049 -0.00233749 0)
(0.127913 -0.00236891 0)
(0.12877 -0.00239771 0)
(0.12962 -0.00242362 0)
(0.130461 -0.0024464 0)
(0.131292 -0.00246573 0)
(0.132113 -0.00248128 0)
(0.132922 -0.00249268 0)
(0.133717 -0.0024995 0)
(0.134499 -0.00250127 0)
(0.135265 -0.00249745 0)
(0.136014 -0.00248744 0)
(0.136744 -0.00247052 0)
(0.137455 -0.00244589 0)
(0.138145 -0.00241264 0)
(0.138812 -0.0023697 0)
(0.139454 -0.00231581 0)
(0.140069 -0.00224955 0)
(0.140656 -0.0021692 0)
(0.141212 -0.00207276 0)
(0.141735 -0.00195787 0)
(0.142222 -0.00182171 0)
(0.142671 -0.0016609 0)
(0.143079 -0.00147137 0)
(0.143442 -0.0012482 0)
(0.143758 -0.000985415 0)
(0.144022 -0.000675699 0)
(0.144233 -0.000310097 0)
(0.144387 0.000122345 0)
(0.144481 0.00063491 0)
(0.144516 0.00124417 0)
(0.144491 0.00197051 0)
(0.144413 0.00283872 0)
(0.144291 0.00387848 0)
(0.144147 0.00512427 0)
(0.144011 0.00661419 0)
(0.143934 0.00838639 0)
(0.14399 0.0104709 0)
(0.144279 0.0128733 0)
(0.144925 0.015546 0)
(0.146054 0.0183434 0)
(0.14773 0.0209734 0)
(0.100017 -0.000128967 0)
(0.100136 -0.000251654 0)
(0.100331 -0.000362345 0)
(0.100587 -0.000464614 0)
(0.1009 -0.000560506 0)
(0.101264 -0.000651413 0)
(0.101673 -0.000738316 0)
(0.102125 -0.000821972 0)
(0.102614 -0.00090296 0)
(0.103139 -0.00098173 0)
(0.103696 -0.00105864 0)
(0.104282 -0.00113398 0)
(0.104897 -0.00120798 0)
(0.105537 -0.00128082 0)
(0.106201 -0.00135265 0)
(0.106887 -0.00142358 0)
(0.107593 -0.00149371 0)
(0.108318 -0.0015631 0)
(0.109061 -0.0016318 0)
(0.10982 -0.00169982 0)
(0.110594 -0.00176718 0)
(0.111382 -0.00183387 0)
(0.112182 -0.00189988 0)
(0.112994 -0.00196517 0)
(0.113816 -0.0020297 0)
(0.114647 -0.00209341 0)
(0.115486 -0.00215624 0)
(0.116333 -0.00221812 0)
(0.117186 -0.00227895 0)
(0.118043 -0.00233865 0)
(0.118905 -0.0023971 0)
(0.11977 -0.0024542 0)
(0.120637 -0.00250981 0)
(0.121505 -0.0025638 0)
(0.122373 -0.00261602 0)
(0.123241 -0.00266632 0)
(0.124106 -0.00271452 0)
(0.124969 -0.00276043 0)
(0.125828 -0.00280385 0)
(0.126683 -0.00284456 0)
(0.127531 -0.00288231 0)
(0.128373 -0.00291683 0)
(0.129207 -0.00294784 0)
(0.130033 -0.00297501 0)
(0.130848 -0.00299799 0)
(0.131653 -0.00301636 0)
(0.132445 -0.00302969 0)
(0.133225 -0.00303747 0)
(0.13399 -0.00303915 0)
(0.13474 -0.00303408 0)
(0.135473 -0.00302156 0)
(0.136188 -0.00300075 0)
(0.136884 -0.00297073 0)
(0.137559 -0.00293043 0)
(0.138212 -0.00287861 0)
(0.138842 -0.00281387 0)
(0.139446 -0.00273455 0)
(0.140023 -0.00263874 0)
(0.140571 -0.00252422 0)
(0.141089 -0.00238836 0)
(0.141575 -0.0022281 0)
(0.142026 -0.00203979 0)
(0.14244 -0.00181913 0)
(0.142817 -0.00156101 0)
(0.143154 -0.00125933 0)
(0.143449 -0.000906809 0)
(0.143703 -0.000494794 0)
(0.143914 -1.2987e-05 0)
(0.144084 0.000550481 0)
(0.144217 0.00120961 0)
(0.144319 0.00198081 0)
(0.144399 0.0028827 0)
(0.144475 0.00393567 0)
(0.14457 0.00516085 0)
(0.144718 0.00657788 0)
(0.144963 0.00820109 0)
(0.145366 0.0100329 0)
(0.145995 0.0120539 0)
(0.146925 0.0142082 0)
(0.148216 0.0163877 0)
(0.149878 0.0184233 0)
(0.100015 -0.00015114 0)
(0.100131 -0.000297373 0)
(0.100321 -0.000429288 0)
(0.100571 -0.000551366 0)
(0.100878 -0.000665887 0)
(0.101235 -0.000774441 0)
(0.101638 -0.000878191 0)
(0.102083 -0.000978034 0)
(0.102565 -0.00107466 0)
(0.103082 -0.00116861 0)
(0.103631 -0.00126031 0)
(0.10421 -0.00135011 0)
(0.104816 -0.00143827 0)
(0.105448 -0.00152503 0)
(0.106103 -0.00161055 0)
(0.10678 -0.00169498 0)
(0.107477 -0.00177842 0)
(0.108192 -0.00186095 0)
(0.108925 -0.00194261 0)
(0.109674 -0.00202345 0)
(0.110437 -0.00210347 0)
(0.111214 -0.00218267 0)
(0.112003 -0.00226102 0)
(0.112802 -0.00233849 0)
(0.113612 -0.00241502 0)
(0.114431 -0.00249054 0)
(0.115258 -0.00256498 0)
(0.116091 -0.00263826 0)
(0.11693 -0.00271025 0)
(0.117774 -0.00278086 0)
(0.118621 -0.00284996 0)
(0.119471 -0.00291741 0)
(0.120323 -0.00298305 0)
(0.121176 -0.00304673 0)
(0.122029 -0.00310828 0)
(0.12288 -0.0031675 0)
(0.123729 -0.00322419 0)
(0.124575 -0.00327813 0)
(0.125417 -0.00332907 0)
(0.126254 -0.00337676 0)
(0.127085 -0.00342091 0)
(0.12791 -0.00346121 0)
(0.128726 -0.00349732 0)
(0.129533 -0.00352885 0)
(0.13033 -0.0035554 0)
(0.131116 -0.0035765 0)
(0.13189 -0.00359164 0)
(0.132652 -0.00360023 0)
(0.133399 -0.00360165 0)
(0.13413 -0.00359516 0)
(0.134846 -0.00357995 0)
(0.135544 -0.00355509 0)
(0.136223 -0.00351955 0)
(0.136883 -0.00347214 0)
(0.137521 -0.00341149 0)
(0.138137 -0.00333605 0)
(0.138729 -0.00324404 0)
(0.139296 -0.0031334 0)
(0.139837 -0.00300176 0)
(0.140351 -0.00284639 0)
(0.140835 -0.00266409 0)
(0.14129 -0.00245119 0)
(0.141714 -0.0022034 0)
(0.142107 -0.00191572 0)
(0.142468 -0.00158236 0)
(0.142797 -0.00119663 0)
(0.143096 -0.000750774 0)
(0.143368 -0.000235961 0)
(0.143615 0.000357675 0)
(0.143845 0.00104061 0)
(0.144066 0.00182453 0)
(0.14429 0.00272158 0)
(0.144535 0.00374355 0)
(0.144825 0.00490049 0)
(0.145187 0.00619871 0)
(0.145658 0.00763781 0)
(0.146279 0.00920665 0)
(0.147093 0.0108783 0)
(0.148139 0.0126046 0)
(0.149442 0.0143123 0)
(0.150996 0.0159059 0)
(0.100012 -0.000173974 0)
(0.100126 -0.000344842 0)
(0.10031 -0.000499125 0)
(0.100555 -0.000642134 0)
(0.100855 -0.000776396 0)
(0.101205 -0.000903668 0)
(0.1016 -0.00102529 0)
(0.102036 -0.0011423 0)
(0.10251 -0.00125551 0)
(0.103019 -0.00136554 0)
(0.103559 -0.00147289 0)
(0.104129 -0.00157798 0)
(0.104726 -0.00168111 0)
(0.105347 -0.00178256 0)
(0.105992 -0.00188253 0)
(0.106658 -0.00198117 0)
(0.107344 -0.00207862 0)
(0.108049 -0.00217497 0)
(0.10877 -0.00227026 0)
(0.109507 -0.00236455 0)
(0.110258 -0.00245785 0)
(0.111021 -0.00255014 0)
(0.111797 -0.0026414 0)
(0.112583 -0.00273158 0)
(0.113379 -0.00282062 0)
(0.114184 -0.00290845 0)
(0.114995 -0.00299498 0)
(0.115814 -0.00308009 0)
(0.116637 -0.00316366 0)
(0.117465 -0.00324557 0)
(0.118296 -0.00332567 0)
(0.119129 -0.00340379 0)
(0.119964 -0.00347977 0)
(0.120799 -0.00355341 0)
(0.121634 -0.00362451 0)
(0.122467 -0.00369285 0)
(0.123297 -0.00375819 0)
(0.124124 -0.00382028 0)
(0.124947 -0.00387885 0)
(0.125765 -0.00393358 0)
(0.126576 -0.00398416 0)
(0.12738 -0.00403022 0)
(0.128176 -0.00407138 0)
(0.128963 -0.00410721 0)
(0.12974 -0.00413724 0)
(0.130505 -0.00416095 0)
(0.131259 -0.00417775 0)
(0.132 -0.00418702 0)
(0.132727 -0.00418803 0)
(0.133439 -0.00417998 0)
(0.134135 -0.00416199 0)
(0.134815 -0.00413304 0)
(0.135476 -0.00409202 0)
(0.136119 -0.00403763 0)
(0.136741 -0.00396843 0)
(0.137343 -0.0038828 0)
(0.137923 -0.00377887 0)
(0.13848 -0.00365452 0)
(0.139014 -0.00350737 0)
(0.139524 -0.00333467 0)
(0.140009 -0.00313331 0)
(0.140469 -0.00289975 0)
(0.140904 -0.00262996 0)
(0.141314 -0.00231939 0)
(0.1417 -0.00196292 0)
(0.142065 -0.0015548 0)
(0.142411 -0.0010887 0)
(0.142741 -0.00055768 0)
(0.143061 4.57284e-05 0)
(0.14338 0.000728602 0)
(0.143705 0.00149789 0)
(0.14405 0.00236007 0)
(0.144431 0.0033201 0)
(0.144867 0.0043803 0)
(0.145381 0.00553882 0)
(0.145996 0.00678794 0)
(0.14674 0.00811196 0)
(0.147637 0.00948536 0)
(0.148706 0.0108715 0)
(0.149953 0.0122229 0)
(0.151369 0.013486 0)
(0.100009 -0.000197498 0)
(0.100121 -0.000394041 0)
(0.1003 -0.000571819 0)
(0.100538 -0.000736872 0)
(0.10083 -0.000891982 0)
(0.101172 -0.00103905 0)
(0.101559 -0.00117958 0)
(0.101987 -0.00131476 0)
(0.102451 -0.0014455 0)
(0.10295 -0.00157252 0)
(0.10348 -0.00169641 0)
(0.10404 -0.00181763 0)
(0.104625 -0.00193655 0)
(0.105236 -0.00205348 0)
(0.105869 -0.00216864 0)
(0.106523 -0.00228223 0)
(0.107197 -0.00239439 0)
(0.107888 -0.00250522 0)
(0.108596 -0.0026148 0)
(0.109319 -0.00272316 0)
(0.110056 -0.00283032 0)
(0.110805 -0.00293627 0)
(0.111566 -0.00304098 0)
(0.112337 -0.0031444 0)
(0.113117 -0.00324645 0)
(0.113905 -0.00334705 0)
(0.1147 -0.00344609 0)
(0.115501 -0.00354344 0)
(0.116307 -0.00363897 0)
(0.117116 -0.00373252 0)
(0.117929 -0.00382393 0)
(0.118743 -0.00391301 0)
(0.119559 -0.00399956 0)
(0.120374 -0.00408337 0)
(0.121189 -0.0041642 0)
(0.122001 -0.00424181 0)
(0.122811 -0.00431592 0)
(0.123617 -0.00438624 0)
(0.124419 -0.00445247 0)
(0.125214 -0.00451425 0)
(0.126004 -0.00457123 0)
(0.126786 -0.00462301 0)
(0.127559 -0.00466915 0)
(0.128324 -0.00470917 0)
(0.129078 -0.00474256 0)
(0.129822 -0.00476875 0)
(0.130553 -0.0047871 0)
(0.131272 -0.00479691 0)
(0.131977 -0.00479742 0)
(0.132668 -0.00478777 0)
(0.133344 -0.004767 0)
(0.134003 -0.00473406 0)
(0.134646 -0.00468776 0)
(0.13527 -0.00462678 0)
(0.135877 -0.00454965 0)
(0.136464 -0.00445469 0)
(0.137032 -0.00434006 0)
(0.137579 -0.00420369 0)
(0.138106 -0.00404324 0)
(0.138613 -0.00385613 0)
(0.139099 -0.00363946 0)
(0.139564 -0.00339002 0)
(0.140011 -0.00310428 0)
(0.140439 -0.00277835 0)
(0.140851 -0.00240801 0)
(0.14125 -0.00198877 0)
(0.141638 -0.00151589 0)
(0.142022 -0.00098451 0)
(0.142407 -0.000389741 0)
(0.142801 0.000273153 0)
(0.143212 0.00100672 0)
(0.143652 0.00181313 0)
(0.144134 0.00269271 0)
(0.144672 0.0036431 0)
(0.145282 0.00465844 0)
(0.14598 0.00572848 0)
(0.146782 0.00683785 0)
(0.1477 0.00796563 0)
(0.14874 0.00908564 0)
(0.149904 0.0101679 0)
(0.15118 0.0111818 0)
(0.100006 -0.000221739 0)
(0.100115 -0.000444949 0)
(0.100289 -0.00064733 0)
(0.10052 -0.000835522 0)
(0.100805 -0.00101257 0)
(0.101138 -0.00118052 0)
(0.101516 -0.001341 0)
(0.101933 -0.00149534 0)
(0.102388 -0.00164457 0)
(0.102876 -0.00178951 0)
(0.103395 -0.00193082 0)
(0.103942 -0.00206903 0)
(0.104516 -0.00220455 0)
(0.105114 -0.00233773 0)
(0.105734 -0.00246883 0)
(0.106374 -0.00259809 0)
(0.107034 -0.00272564 0)
(0.107711 -0.00285163 0)
(0.108404 -0.00297611 0)
(0.109112 -0.00309915 0)
(0.109832 -0.00322075 0)
(0.110565 -0.00334091 0)
(0.111309 -0.00345959 0)
(0.112063 -0.00357673 0)
(0.112825 -0.00369224 0)
(0.113595 -0.00380603 0)
(0.114371 -0.00391798 0)
(0.115153 -0.00402793 0)
(0.115939 -0.00413574 0)
(0.116729 -0.00424124 0)
(0.117521 -0.00434422 0)
(0.118314 -0.00444449 0)
(0.119109 -0.00454181 0)
(0.119902 -0.00463594 0)
(0.120695 -0.00472663 0)
(0.121485 -0.00481358 0)
(0.122271 -0.00489651 0)
(0.123054 -0.00497509 0)
(0.123832 -0.00504896 0)
(0.124604 -0.00511776 0)
(0.12537 -0.00518107 0)
(0.126127 -0.00523847 0)
(0.126877 -0.00528948 0)
(0.127617 -0.00533358 0)
(0.128347 -0.00537021 0)
(0.129067 -0.00539875 0)
(0.129774 -0.00541854 0)
(0.13047 -0.00542883 0)
(0.131152 -0.00542882 0)
(0.13182 -0.00541761 0)
(0.132474 -0.00539422 0)
(0.133112 -0.00535756 0)
(0.133735 -0.00530643 0)
(0.134341 -0.00523952 0)
(0.134931 -0.00515537 0)
(0.135503 -0.00505235 0)
(0.136059 -0.00492871 0)
(0.136596 -0.00478248 0)
(0.137117 -0.00461153 0)
(0.13762 -0.00441352 0)
(0.138107 -0.00418593 0)
(0.138578 -0.00392601 0)
(0.139035 -0.00363087 0)
(0.13948 -0.00329743 0)
(0.139916 -0.00292253 0)
(0.140345 -0.00250296 0)
(0.140771 -0.0020356 0)
(0.1412 -0.00151754 0)
(0.141637 -0.000946212 0)
(0.142089 -0.000319525 0)
(0.142566 0.000363978 0)
(0.143075 0.00110232 0)
(0.143625 0.00189308 0)
(0.144227 0.00273168 0)
(0.144891 0.00361093 0)
(0.145626 0.00452078 0)
(0.146442 0.00544817 0)
(0.147343 0.00637722 0)
(0.148331 0.00728991 0)
(0.149402 0.0081673 0)
(0.150548 0.00899178 0)
(0.100003 -0.000246712 0)
(0.10011 -0.000497539 0)
(0.100278 -0.000725605 0)
(0.100502 -0.000938008 0)
(0.100778 -0.00113808 0)
(0.101103 -0.00132795 0)
(0.10147 -0.00150941 0)
(0.101877 -0.0016839 0)
(0.10232 -0.00185259 0)
(0.102796 -0.00201637 0)
(0.103303 -0.00217598 0)
(0.103837 -0.00233201 0)
(0.104397 -0.00248493 0)
(0.104981 -0.00263514 0)
(0.105587 -0.00278293 0)
(0.106212 -0.00292855 0)
(0.106856 -0.00307218 0)
(0.107517 -0.00321395 0)
(0.108194 -0.00335396 0)
(0.108884 -0.00349224 0)
(0.109587 -0.00362883 0)
(0.110302 -0.00376371 0)
(0.111027 -0.00389683 0)
(0.111762 -0.00402814 0)
(0.112505 -0.00415753 0)
(0.113254 -0.00428488 0)
(0.11401 -0.00441008 0)
(0.11477 -0.00453295 0)
(0.115535 -0.00465331 0)
(0.116302 -0.00477098 0)
(0.117072 -0.00488575 0)
(0.117842 -0.00499736 0)
(0.118613 -0.00510558 0)
(0.119383 -0.00521014 0)
(0.120151 -0.00531074 0)
(0.120916 -0.00540708 0)
(0.121678 -0.00549882 0)
(0.122436 -0.00558561 0)
(0.123188 -0.00566706 0)
(0.123935 -0.00574279 0)
(0.124674 -0.00581233 0)
(0.125406 -0.00587523 0)
(0.126129 -0.00593098 0)
(0.126844 -0.00597902 0)
(0.127548 -0.00601877 0)
(0.128242 -0.00604957 0)
(0.128924 -0.00607074 0)
(0.129594 -0.00608151 0)
(0.130252 -0.00608105 0)
(0.130896 -0.00606846 0)
(0.131527 -0.00604275 0)
(0.132144 -0.00600285 0)
(0.132746 -0.00594758 0)
(0.133334 -0.00587568 0)
(0.133906 -0.00578577 0)
(0.134463 -0.00567633 0)
(0.135006 -0.00554575 0)
(0.135533 -0.00539229 0)
(0.136046 -0.00521407 0)
(0.136546 -0.00500913 0)
(0.137033 -0.00477538 0)
(0.137509 -0.00451065 0)
(0.137975 -0.00421275 0)
(0.138435 -0.00387947 0)
(0.138889 -0.00350869 0)
(0.139343 -0.00309842 0)
(0.139799 -0.00264697 0)
(0.140263 -0.00215305 0)
(0.140739 -0.0016159 0)
(0.141233 -0.00103545 0)
(0.141753 -0.000412295 0)
(0.142305 0.00025229 0)
(0.142895 0.000953428 0)
(0.14353 0.00168537 0)
(0.144215 0.00244114 0)
(0.144957 0.00321215 0)
(0.145759 0.00398814 0)
(0.146621 0.00475757 0)
(0.147545 0.00550825 0)
(0.148525 0.00622823 0)
(0.149554 0.00690722 0)
(0.0999999 -0.000272424 0)
(0.100105 -0.000551775 0)
(0.100268 -0.000806569 0)
(0.100484 -0.00104422 0)
(0.100751 -0.00126835 0)
(0.101066 -0.00148119 0)
(0.101422 -0.00168463 0)
(0.101818 -0.00188026 0)
(0.102248 -0.00206933 0)
(0.102712 -0.00225285 0)
(0.103204 -0.00243162 0)
(0.103725 -0.0026063 0)
(0.10427 -0.00277742 0)
(0.104838 -0.00294541 0)
(0.105428 -0.0031106 0)
(0.106037 -0.00327327 0)
(0.106664 -0.00343361 0)
(0.107307 -0.00359177 0)
(0.107965 -0.00374787 0)
(0.108637 -0.00390194 0)
(0.10932 -0.00405402 0)
(0.110015 -0.00420408 0)
(0.11072 -0.00435208 0)
(0.111434 -0.00449795 0)
(0.112155 -0.00464157 0)
(0.112882 -0.00478282 0)
(0.113615 -0.00492155 0)
(0.114353 -0.00505758 0)
(0.115094 -0.00519071 0)
(0.115837 -0.00532074 0)
(0.116582 -0.00544741 0)
(0.117327 -0.00557048 0)
(0.118072 -0.00568967 0)
(0.118816 -0.00580467 0)
(0.119558 -0.00591519 0)
(0.120297 -0.00602086 0)
(0.121032 -0.00612135 0)
(0.121762 -0.00621627 0)
(0.122487 -0.0063052 0)
(0.123206 -0.00638771 0)
(0.123918 -0.00646334 0)
(0.124622 -0.00653159 0)
(0.125318 -0.00659193 0)
(0.126004 -0.00664379 0)
(0.126681 -0.00668656 0)
(0.127348 -0.00671957 0)
(0.128003 -0.00674213 0)
(0.128647 -0.00675345 0)
(0.129279 -0.00675273 0)
(0.129899 -0.00673907 0)
(0.130506 -0.00671153 0)
(0.1311 -0.00666907 0)
(0.131681 -0.00661059 0)
(0.132249 -0.00653492 0)
(0.132803 -0.00644079 0)
(0.133345 -0.00632689 0)
(0.133874 -0.00619179 0)
(0.13439 -0.00603403 0)
(0.134896 -0.00585207 0)
(0.135391 -0.00564436 0)
(0.135876 -0.0054093 0)
(0.136355 -0.00514534 0)
(0.136827 -0.00485098 0)
(0.137296 -0.00452484 0)
(0.137765 -0.00416572 0)
(0.138236 -0.00377269 0)
(0.138713 -0.0033452 0)
(0.1392 -0.00288316 0)
(0.139702 -0.00238706 0)
(0.140222 -0.00185807 0)
(0.140765 -0.0012981 0)
(0.141337 -0.000709692 0)
(0.141943 -9.57917e-05 0)
(0.142587 0.000538559 0)
(0.14327 0.00118581 0)
(0.143996 0.0018389 0)
(0.144766 0.00249011 0)
(0.14558 0.00313136 0)
(0.146435 0.00375456 0)
(0.147327 0.00435211 0)
(0.148252 0.00491794 0)
(0.0999963 -0.000298867 0)
(0.100099 -0.000607602 0)
(0.100257 -0.000890115 0)
(0.100465 -0.00115402 0)
(0.100723 -0.0014032 0)
(0.101027 -0.00164 0)
(0.101372 -0.0018664 0)
(0.101755 -0.00208411 0)
(0.102173 -0.00229448 0)
(0.102622 -0.0024986 0)
(0.1031 -0.00269737 0)
(0.103604 -0.00289149 0)
(0.104134 -0.00308156 0)
(0.104685 -0.00326805 0)
(0.105257 -0.00345131 0)
(0.105848 -0.00363167 0)
(0.106456 -0.00380932 0)
(0.10708 -0.00398445 0)
(0.107718 -0.00415716 0)
(0.108369 -0.00432751 0)
(0.109032 -0.00449552 0)
(0.109705 -0.00466118 0)
(0.110387 -0.00482443 0)
(0.111078 -0.00498519 0)
(0.111775 -0.00514334 0)
(0.112479 -0.00529874 0)
(0.113187 -0.00545122 0)
(0.113899 -0.00560059 0)
(0.114615 -0.00574663 0)
(0.115332 -0.00588911 0)
(0.11605 -0.00602776 0)
(0.116768 -0.00616231 0)
(0.117486 -0.00629245 0)
(0.118202 -0.00641787 0)
(0.118916 -0.00653822 0)
(0.119626 -0.00665314 0)
(0.120332 -0.00676225 0)
(0.121033 -0.00686514 0)
(0.121729 -0.00696138 0)
(0.122418 -0.00705052 0)
(0.123101 -0.00713206 0)
(0.123775 -0.0072055 0)
(0.124442 -0.00727029 0)
(0.125099 -0.00732586 0)
(0.125747 -0.00737157 0)
(0.126385 -0.00740679 0)
(0.127012 -0.0074308 0)
(0.127629 -0.00744286 0)
(0.128235 -0.00744218 0)
(0.128829 -0.00742793 0)
(0.129411 -0.0073992 0)
(0.129981 -0.00735506 0)
(0.13054 -0.00729451 0)
(0.131088 -0.00721651 0)
(0.131623 -0.00711998 0)
(0.132148 -0.00700379 0)
(0.132663 -0.0068668 0)
(0.133167 -0.00670783 0)
(0.133663 -0.00652573 0)
(0.134151 -0.00631937 0)
(0.134634 -0.00608766 0)
(0.135111 -0.00582961 0)
(0.135586 -0.00554438 0)
(0.13606 -0.00523128 0)
(0.136536 -0.0048899 0)
(0.137017 -0.00452011 0)
(0.137505 -0.00412218 0)
(0.138004 -0.00369682 0)
(0.138518 -0.00324526 0)
(0.139048 -0.0027693 0)
(0.139599 -0.00227137 0)
(0.140174 -0.00175447 0)
(0.140776 -0.00122213 0)
(0.141408 -0.000678221 0)
(0.142071 -0.000126424 0)
(0.142767 0.000427489 0)
(0.143495 0.000976882 0)
(0.144253 0.00151543 0)
(0.145039 0.00203772 0)
(0.14585 0.0025389 0)
(0.146682 0.00301546 0)
(0.0999924 -0.000326014 0)
(0.100093 -0.000664937 0)
(0.100246 -0.000976097 0)
(0.100446 -0.00126721 0)
(0.100694 -0.00154239 0)
(0.100987 -0.00180409 0)
(0.10132 -0.00205437 0)
(0.10169 -0.00229505 0)
(0.102093 -0.00252757 0)
(0.102527 -0.00275313 0)
(0.102989 -0.00297268 0)
(0.103477 -0.003187 0)
(0.103988 -0.00339673 0)
(0.104521 -0.00360237 0)
(0.105074 -0.00380434 0)
(0.105645 -0.00400297 0)
(0.106233 -0.00419849 0)
(0.106836 -0.00439108 0)
(0.107452 -0.00458086 0)
(0.108081 -0.00476791 0)
(0.10872 -0.00495224 0)
(0.10937 -0.00513384 0)
(0.110028 -0.00531264 0)
(0.110694 -0.00548855 0)
(0.111366 -0.00566145 0)
(0.112043 -0.00583118 0)
(0.112725 -0.00599755 0)
(0.11341 -0.00616036 0)
(0.114097 -0.00631937 0)
(0.114786 -0.00647432 0)
(0.115476 -0.00662493 0)
(0.116165 -0.0067709 0)
(0.116853 -0.00691192 0)
(0.117539 -0.00704763 0)