/*--------------------------------*- C++ -*----------------------------------*\
| =========                 |                                                 |
| \\      /  F ield         | OpenFOAM: The Open Source CFD Toolbox           |
|  \\    /   O peration     | Version:  2106                                  |
|   \\  /    A nd           | Website:  www.openfoam.com                      |
|    \\/     M anipulation  |                                                 |
\*---------------------------------------------------------------------------*/
FoamFile
{
    version     2.0;
    format      ascii;
    arch        "LSB;label=32;scalar=64";
    class       surfaceScalarField;
    location    "6.4";
    object      phi;
}
// * * * * * * * * * * * * * * * * * * * * * * * * * * * * * * * * * * * * * //

dimensions      [1 0 -1 0 0 0 0];

oriented        oriented;

internalField   nonuniform List<scalar> 
23692
(
9.31805e-05
-1.01026e-07
9.33632e-05
-1.82742e-07
9.36187e-05
-2.55471e-07
9.39383e-05
-3.19484e-07
9.43151e-05
-3.76808e-07
9.47438e-05
-4.28671e-07
9.52198e-05
-4.75897e-07
9.5739e-05
-5.19135e-07
9.6298e-05
-5.58899e-07
9.68937e-05
-5.95585e-07
9.75233e-05
-6.29522e-07
9.81844e-05
-6.60983e-07
9.88747e-05
-6.90191e-07
9.95922e-05
-7.17334e-07
0.000100335
-7.42576e-07
0.000101101
-7.6605e-07
0.000101889
-7.87871e-07
0.000102697
-8.08138e-07
0.000103525
-8.26938e-07
0.000104369
-8.44342e-07
0.00010523
-8.60415e-07
0.000106105
-8.7521e-07
0.000106994
-8.88775e-07
0.000107895
-9.01152e-07
0.000108808
-9.12375e-07
0.00010973
-9.22472e-07
0.000110662
-9.31477e-07
0.000111602
-9.39405e-07
0.000112548
-9.4628e-07
0.0001135
-9.52116e-07
0.000114458
-9.56927e-07
0.000115418
-9.60723e-07
0.000116382
-9.63514e-07
0.000117348
-9.65305e-07
0.000118314
-9.66097e-07
0.00011928
-9.6589e-07
0.000120245
-9.64687e-07
0.000121207
-9.62478e-07
0.000122167
-9.59256e-07
0.000123122
-9.55011e-07
0.000124072
-9.49727e-07
0.000125015
-9.43386e-07
0.000125951
-9.35962e-07
0.000126879
-9.27429e-07
0.000127797
-9.17752e-07
0.000128704
-9.06888e-07
0.000129599
-8.9479e-07
0.00013048
-8.81402e-07
0.000131347
-8.66651e-07
0.000132197
-8.50462e-07
0.00013303
-8.32738e-07
0.000133844
-8.13369e-07
0.000134636
-7.92223e-07
0.000135405
-7.69145e-07
0.000136149
-7.43951e-07
0.000136866
-7.16422e-07
0.000137552
-6.86295e-07
0.000138205
-6.53253e-07
0.000138822
-6.16916e-07
0.000139399
-5.76818e-07
0.000139932
-5.32389e-07
0.000140415
-4.82923e-07
0.000140842
-4.2754e-07
0.000141207
-3.65131e-07
0.000141502
-2.94282e-07
0.000141715
-2.13165e-07
0.000141834
-1.19391e-07
0.000141844
-9.82245e-09
0.000141724
1.19938e-07
0.000141448
2.75878e-07
0.000140982
4.66616e-07
0.000140277
7.04645e-07
0.000139268
1.00865e-06
0.000137861
1.40739e-06
0.000135915
1.94647e-06
0.000133214
2.70027e-06
0.000129421
3.79304e-06
0.000123983
5.4384e-06
0.000115952
8.03088e-06
0.00010357
1.23823e-05
2.08297e-05
8.27399e-05
9.97044e-05
-2.06441e-07
9.98989e-05
-3.77177e-07
0.000100171
-5.27956e-07
0.000100512
-6.60431e-07
0.000100915
-7.79101e-07
0.000101373
-8.86457e-07
0.000101881
-9.84199e-07
0.000102436
-1.07369e-06
0.000103033
-1.15597e-06
0.000103669
-1.23188e-06
0.000104342
-1.3021e-06
0.000105048
-1.36719e-06
0.000105786
-1.42762e-06
0.000106552
-1.48377e-06
0.000107346
-1.53599e-06
0.000108165
-1.58454e-06
0.000109006
-1.62967e-06
0.00010987
-1.67158e-06
0.000110754
-1.71045e-06
0.000111656
-1.74643e-06
0.000112575
-1.77966e-06
0.000113511
-1.81024e-06
0.00011446
-1.83827e-06
0.000115423
-1.86384e-06
0.000116398
-1.88703e-06
0.000117384
-1.90788e-06
0.000118379
-1.92647e-06
0.000119382
-1.94283e-06
0.000120393
-1.95701e-06
0.00012141
-1.96904e-06
0.000122433
-1.97894e-06
0.000123459
-1.98675e-06
0.000124488
-1.99247e-06
0.000125519
-1.99612e-06
0.000126551
-1.99771e-06
0.000127582
-1.99723e-06
0.000128612
-1.99468e-06
0.00012964
-1.99006e-06
0.000130664
-1.98334e-06
0.000131684
-1.9745e-06
0.000132698
-1.96351e-06
0.000133705
-1.95034e-06
0.000134704
-1.93493e-06
0.000135694
-1.91722e-06
0.000136674
-1.89715e-06
0.000137641
-1.87463e-06
0.000138596
-1.84956e-06
0.000139537
-1.82182e-06
0.000140462
-1.79128e-06
0.000141369
-1.75777e-06
0.000142257
-1.72109e-06
0.000143125
-1.68103e-06
0.00014397
-1.63731e-06
0.000144791
-1.58962e-06
0.000145585
-1.53758e-06
0.000146349
-1.48074e-06
0.000147081
-1.41858e-06
0.000147779
-1.35046e-06
0.000148437
-1.2756e-06
0.000149054
-1.19306e-06
0.000149623
-1.1017e-06
0.00015014
-1.00011e-06
0.000150599
-8.8653e-07
0.000150993
-7.5875e-07
0.000151313
-6.13973e-07
0.000151548
-4.48609e-07
0.000151687
-2.57998e-07
0.000151713
-3.60094e-08
0.000151607
2.25613e-07
0.000151345
5.38195e-07
0.000150894
9.17581e-07
0.000150212
1.38627e-06
0.000149244
1.97693e-06
0.000147914
2.73791e-06
0.000146118
3.74221e-06
0.000143717
5.10139e-06
0.000140524
6.98593e-06
0.00013631
9.65234e-06
0.000130861
1.34796e-05
0.00012431
1.8934e-05
2.58419e-05
0.000119297
0.000106684
-3.15606e-07
0.00010689
-5.8304e-07
0.000107179
-8.17235e-07
0.000107542
-1.02313e-06
0.000107971
-1.20749e-06
0.000108459
-1.37422e-06
0.000109
-1.526e-06
0.000109592
-1.66494e-06
0.000110229
-1.79267e-06
0.000110907
-1.9105e-06
0.000111625
-2.01949e-06
0.000112378
-2.1205e-06
0.000113165
-2.21425e-06
0.000113983
-2.30137e-06
0.000114829
-2.38236e-06
0.000115703
-2.45766e-06
0.000116601
-2.52764e-06
0.000117522
-2.59263e-06
0.000118465
-2.65288e-06
0.000119427
-2.70865e-06
0.000120408
-2.76013e-06
0.000121405
-2.8075e-06
0.000122418
-2.85092e-06
0.000123445
-2.8905e-06
0.000124484
-2.92638e-06
0.000125535
-2.95864e-06
0.000126596
-2.98737e-06
0.000127666
-3.01264e-06
0.000128744
-3.03453e-06
0.000129828
-3.05307e-06
0.000130918
-3.06831e-06
0.000132012
-3.08029e-06
0.000133108
-3.08904e-06
0.000134207
-3.09457e-06
0.000135306
-3.09689e-06
0.000136405
-3.096e-06
0.000137503
-3.0919e-06
0.000138597
-3.08458e-06
0.000139688
-3.074e-06
0.000140774
-3.06014e-06
0.000141854
-3.04294e-06
0.000142926
-3.02235e-06
0.000143989
-2.99829e-06
0.000145043
-2.97068e-06
0.000146085
-2.9394e-06
0.000147115
-2.90434e-06
0.000148131
-2.86532e-06
0.000149131
-2.82219e-06
0.000150115
-2.77472e-06
0.00015108
-2.72266e-06
0.000152025
-2.66572e-06
0.000152947
-2.60357e-06
0.000153846
-2.53579e-06
0.000154718
-2.4619e-06
0.000155562
-2.38135e-06
0.000156375
-2.29345e-06
0.000157154
-2.19741e-06
0.000157896
-2.09226e-06
0.000158597
-1.97687e-06
0.000159254
-1.84982e-06
0.000159862
-1.70943e-06
0.000160415
-1.55361e-06
0.000160908
-1.37978e-06
0.000161335
-1.18474e-06
0.000161685
-9.64445e-07
0.00016195
-7.13761e-07
0.000162118
-4.26097e-07
0.000162175
-9.29004e-08
0.000162104
2.97042e-07
0.000161883
7.58787e-07
0.000161488
1.31283e-06
0.000160887
1.9873e-06
0.000160043
2.82121e-06
0.000158911
3.86925e-06
0.000157445
5.20826e-06
0.000155601
6.94537e-06
0.000153362
9.22535e-06
0.000150785
1.22294e-05
0.000148122
1.61423e-05
0.00014607
2.09862e-05
2.60329e-05
0.000145879
0.000114152
-4.28236e-07
0.000114369
-7.99787e-07
0.000114675
-1.12312e-06
0.00011506
-1.40769e-06
0.000115515
-1.6624e-06
0.000116033
-1.89266e-06
0.00011661
-2.10223e-06
0.000117239
-2.29402e-06
0.000117916
-2.47032e-06
0.000118639
-2.63291e-06
0.000119403
-2.78327e-06
0.000120205
-2.9226e-06
0.000121043
-3.0519e-06
0.000121914
-3.17203e-06
0.000122815
-3.28368e-06
0.000123745
-3.38747e-06
0.000124702
-3.48391e-06
0.000125683
-3.57343e-06
0.000126686
-3.65643e-06
0.000127711
-3.73321e-06
0.000128755
-3.80407e-06
0.000129817
-3.86925e-06
0.000130896
-3.92896e-06
0.000131989
-3.98338e-06
0.000133095
-4.03266e-06
0.000134214
-4.07695e-06
0.000135343
-4.11637e-06
0.000136481
-4.15101e-06
0.000137628
-4.18096e-06
0.000138782
-4.20629e-06
0.000139941
-4.22707e-06
0.000141104
-4.24334e-06
0.00014227
-4.25514e-06
0.000143438
-4.26249e-06
0.000144607
-4.26542e-06
0.000145775
-4.26392e-06
0.000146941
-4.25798e-06
0.000148104
-4.2476e-06
0.000149263
-4.23272e-06
0.000150417
-4.21331e-06
0.000151563
-4.18931e-06
0.000152702
-4.16063e-06
0.000153831
-4.12718e-06
0.000154949
-4.08883e-06
0.000156055
-4.04545e-06
0.000157148
-3.99685e-06
0.000158226
-3.94284e-06
0.000159287
-3.88317e-06
0.00016033
-3.81755e-06
0.000161353
-3.74567e-06
0.000162354
-3.66712e-06
0.000163332
-3.58144e-06
0.000164285
-3.4881e-06
0.000165209
-3.38646e-06
0.000166104
-3.27576e-06
0.000166966
-3.15514e-06
0.000167792
-3.02352e-06
0.000168579
-2.87966e-06
0.000169324
-2.72205e-06
0.000170024
-2.54888e-06
0.000170672
-2.35797e-06
0.000171265
-2.14666e-06
0.000171797
-1.91167e-06
0.000172261
-1.64898e-06
0.000172651
-1.35357e-06
0.000172956
-1.01916e-06
0.000173168
-6.37824e-07
0.000173274
-1.99462e-07
0.000173263
3.08774e-07
0.000173118
9.03527e-07
0.000172824
1.60669e-06
0.000172364
2.44695e-06
0.000171724
3.46196e-06
0.000170892
4.70081e-06
0.000169874
6.22662e-06
0.000168702
8.11764e-06
0.000167463
1.04636e-05
0.000166344
1.33485e-05
0.000165684
1.68023e-05
0.000165994
2.06759e-05
2.43781e-05
0.000167649
0.000122143
-5.44195e-07
0.00012237
-1.02697e-06
0.000122693
-1.44535e-06
0.000123099
-1.8141e-06
0.000123581
-2.14408e-06
0.000124131
-2.44229e-06
0.000124742
-2.71363e-06
0.00012541
-2.96188e-06
0.00012613
-3.19002e-06
0.000126898
-3.40038e-06
0.000127709
-3.59487e-06
0.000128562
-3.77505e-06
0.000129452
-3.94222e-06
0.000130378
-4.09749e-06
0.000131336
-4.24177e-06
0.000132325
-4.37585e-06
0.000133342
-4.50039e-06
0.000134384
-4.61597e-06
0.000135451
-4.72308e-06
0.00013654
-4.82214e-06
0.00013765
-4.91351e-06
0.000138778
-4.99752e-06
0.000139924
-5.07444e-06
0.000141085
-5.14449e-06
0.000142261
-5.20789e-06
0.000143449
-5.26482e-06
0.000144648
-5.31542e-06
0.000145857
-5.35984e-06
0.000147075
-5.39817e-06
0.000148299
-5.43053e-06
0.000149529
-5.45698e-06
0.000150764
-5.47759e-06
0.000152001
-5.49241e-06
0.00015324
-5.50147e-06
0.00015448
-5.5048e-06
0.000155719
-5.5024e-06
0.000156955
-5.49426e-06
0.000158188
-5.48036e-06
0.000159416
-5.46066e-06
0.000160638
-5.4351e-06
0.000161853
-5.40361e-06
0.000163058
-5.36608e-06
0.000164254
-5.32239e-06
0.000165437
-5.2724e-06
0.000166608
-5.21592e-06
0.000167764
-5.15273e-06
0.000168904
-5.08259e-06
0.000170026
-5.00519e-06
0.000171129
-4.92017e-06
0.000172211
-4.82714e-06
0.000173269
-4.7256e-06
0.000174303
-4.61498e-06
0.000175309
-4.49462e-06
0.000176287
-4.36375e-06
0.000177233
-4.22144e-06
0.000178144
-4.06661e-06
0.000179019
-3.898e-06
0.000179853
-3.7141e-06
0.000180644
-3.5131e-06
0.000181388
-3.29286e-06
0.000182081
-3.0508e-06
0.000182719
-2.78384e-06
0.000183295
-2.4882e-06
0.000183805
-2.15932e-06
0.000184244
-1.7916e-06
0.000184603
-1.37814e-06
0.000184875
-9.10438e-07
0.000185054
-3.77937e-07
0.00018513
2.32351e-07
0.000185097
9.36472e-07
0.000184949
1.75452e-06
0.000184685
2.71154e-06
0.000184309
3.8381e-06
0.000183839
5.17071e-06
0.000183314
6.7512e-06
0.000182808
8.62372e-06
0.000182445
1.08267e-05
0.000182419
1.3375e-05
0.000182997
1.62242e-05
0.000184466
1.92063e-05
2.19364e-05
0.000186908
0.000130693
-6.63471e-07
0.000130931
-1.26423e-06
0.000131269
-1.78365e-06
0.000131697
-2.24224e-06
0.000132206
-2.65264e-06
0.000132787
-3.02344e-06
0.000133434
-3.36073e-06
0.000134142
-3.66926e-06
0.000134905
-3.95271e-06
0.000135718
-4.214e-06
0.000136579
-4.4555e-06
0.000137483
-4.67917e-06
0.000138428
-4.88663e-06
0.00013941
-5.07926e-06
0.000140427
-5.2582e-06
0.000141475
-5.42443e-06
0.000142554
-5.57878e-06
0.00014366
-5.72197e-06
0.000144792
-5.8546e-06
0.000145947
-5.97721e-06
0.000147124
-6.09024e-06
0.000148321
-6.1941e-06
0.000149536
-6.28912e-06
0.000150767
-6.3756e-06
0.000152014
-6.4538e-06
0.000153273
-6.52393e-06
0.000154544
-6.58619e-06
0.000155825
-6.64075e-06
0.000157115
-6.68774e-06
0.000158412
-6.72729e-06
0.000159715
-6.75949e-06
0.000161022
-6.78442e-06
0.000162332
-6.80216e-06
0.000163643
-6.81273e-06
0.000164955
-6.81618e-06
0.000166265
-6.81251e-06
0.000167573
-6.80172e-06
0.000168876
-6.78377e-06
0.000170175
-6.75863e-06
0.000171466
-6.72623e-06
0.000172749
-6.68647e-06
0.000174022
-6.63925e-06
0.000175285
-6.58441e-06
0.000176534
-6.52178e-06
0.000177769
-6.45115e-06
0.000178989
-6.37225e-06
0.000180192
-6.2848e-06
0.000181375
-6.18844e-06
0.000182538
-6.08275e-06
0.000183678
-5.96726e-06
0.000184794
-5.84138e-06
0.000185883
-5.70447e-06
0.000186945
-5.55576e-06
0.000187975
-5.39433e-06
0.000188973
-5.21915e-06
0.000189936
-5.02897e-06
0.00019086
-4.82235e-06
0.000191744
-4.5976e-06
0.000192583
-4.35269e-06
0.000193376
-4.08526e-06
0.000194118
-3.79251e-06
0.000194805
-3.47107e-06
0.000195434
-3.11697e-06
0.000196
-2.72543e-06
0.000196499
-2.29073e-06
0.000196927
-1.80598e-06
0.000197279
-1.26293e-06
0.000197553
-6.51671e-07
0.000197746
3.9515e-08
0.000197858
8.24508e-07
0.000197893
1.71903e-06
0.000197863
2.74195e-06
0.000197787
3.91416e-06
0.0001977
5.25774e-06
0.000197657
6.79389e-06
0.000197742
8.53877e-06
0.000198073
1.04962e-05
0.000198802
1.26452e-05
0.000200106
1.4921e-05
0.000202124
1.71885e-05
1.92202e-05
0.00020484
0.000139842
-7.86152e-07
0.000140089
-1.5113e-06
0.000140444
-2.1378e-06
0.000140893
-2.69192e-06
0.000141429
-3.18806e-06
0.000142042
-3.63627e-06
0.000142725
-4.04391e-06
0.000143473
-4.41669e-06
0.000144279
-4.75907e-06
0.00014514
-5.07459e-06
0.000146051
-5.36612e-06
0.000147008
-5.63604e-06
0.000148008
-5.88632e-06
0.000149047
-6.11862e-06
0.000150123
-6.33432e-06
0.000151234
-6.53462e-06
0.000152376
-6.72052e-06
0.000153547
-6.89289e-06
0.000154745
-7.05248e-06
0.000155968
-7.19991e-06
0.000157214
-7.33575e-06
0.00015848
-7.46047e-06
0.000159766
-7.57449e-06
0.000161069
-7.67816e-06
0.000162387
-7.7718e-06
0.000163719
-7.85567e-06
0.000165063
-7.93001e-06
0.000166418
-7.99502e-06
0.000167781
-8.05088e-06
0.000169152
-8.09772e-06
0.000170528
-8.13568e-06
0.000171909
-8.16486e-06
0.000173292
-8.18532e-06
0.000174677
-8.19714e-06
0.000176061
-8.20034e-06
0.000177444
-8.19495e-06
0.000178824
-8.18097e-06
0.000180198
-8.15836e-06
0.000181567
-8.12708e-06
0.000182928
-8.08706e-06
0.00018428
-8.03819e-06
0.000185621
-7.98035e-06
0.00018695
-7.91337e-06
0.000188266
-7.83705e-06
0.000189566
-7.75116e-06
0.000190849
-7.6554e-06
0.000192114
-7.54945e-06
0.000193359
-7.4329e-06
0.000194582
-7.30528e-06
0.00019578
-7.16606e-06
0.000196954
-7.01461e-06
0.0001981
-6.8502e-06
0.000199216
-6.67196e-06
0.000200301
-6.47892e-06
0.000201352
-6.26993e-06
0.000202366
-6.04365e-06
0.000203343
-5.79853e-06
0.000204278
-5.53277e-06
0.00020517
-5.24425e-06
0.000206015
-4.93052e-06
0.000206811
-4.58871e-06
0.000207556
-4.21545e-06
0.000208246
-3.80681e-06
0.000208878
-3.3582e-06
0.000209452
-2.86423e-06
0.000209965
-2.31867e-06
0.000210416
-1.71425e-06
0.000210807
-1.04261e-06
0.000211141
-2.94301e-07
0.000211424
5.41149e-07
0.000211669
1.47439e-06
0.000211894
2.51704e-06
0.000212128
3.68039e-06
0.000212411
4.97396e-06
0.000212802
6.4032e-06
0.000213375
7.96618e-06
0.000214222
9.64865e-06
0.00021545
1.14175e-05
0.000217158
1.32128e-05
0.000219406
1.49406e-05
1.64732e-05
0.000222153
0.000149632
-9.12384e-07
0.000149889
-1.768e-06
0.000150258
-2.50759e-06
0.000150729
-3.16296e-06
0.000151292
-3.75023e-06
0.000151936
-4.28081e-06
0.000152656
-4.76333e-06
0.000153444
-5.20449e-06
0.000154294
-5.60957e-06
0.000155203
-5.98275e-06
0.000156164
-6.32745e-06
0.000157175
-6.64648e-06
0.000158231
-6.94218e-06
0.000159329
-7.21651e-06
0.000160466
-7.47114e-06
0.000161639
-7.70748e-06
0.000162846
-7.92671e-06
0.000164083
-8.12987e-06
0.000165348
-8.31785e-06
0.00016664
-8.4914e-06
0.000167956
-8.65118e-06
0.000169293
-8.79777e-06
0.000170651
-8.93164e-06
0.000172026
-9.05323e-06
0.000173418
-9.16292e-06
0.000174823
-9.26101e-06
0.000176241
-9.3478e-06
0.00017767
-9.42353e-06
0.000179108
-9.48839e-06
0.000180553
-9.54258e-06
0.000182004
-9.58624e-06
0.000183459
-9.61948e-06
0.000184916
-9.64242e-06
0.000186374
-9.65512e-06
0.000187832
-9.65764e-06
0.000189287
-9.65e-06
0.000190739
-9.6322e-06
0.000192185
-9.60423e-06
0.000193624
-9.56603e-06
0.000195055
-9.51754e-06
0.000196475
-9.45864e-06
0.000197884
-9.3892e-06
0.00019928
-9.30904e-06
0.000200661
-9.21794e-06
0.000202026
-9.11566e-06
0.000203373
-9.00188e-06
0.0002047
-8.87624e-06
0.000206005
-8.7383e-06
0.000207288
-8.58758e-06
0.000208545
-8.42349e-06
0.000209776
-8.24537e-06
0.000210979
-8.05243e-06
0.000212151
-7.84378e-06
0.00021329
-7.6184e-06
0.000214396
-7.37508e-06
0.000215464
-7.11247e-06
0.000216495
-6.82899e-06
0.000217485
-6.52283e-06
0.000218433
-6.19191e-06
0.000219336
-5.83383e-06
0.000220194
-5.44587e-06
0.000221003
-5.02487e-06
0.000221764
-4.56726e-06
0.000222474
-4.06898e-06
0.000223136
-3.52542e-06
0.000223748
-2.93145e-06
0.000224316
-2.28136e-06
0.000224842
-1.56897e-06
0.000225335
-7.87686e-07
0.000225807
6.93159e-08
0.000226274
1.00808e-06
0.000226757
2.03318e-06
0.00022729
3.14816e-06
0.00022791
4.35347e-06
0.000228669
5.64479e-06
0.000229624
7.01092e-06
0.000230841
8.43133e-06
0.000232385
9.87346e-06
0.000234307
1.12907e-05
0.000236626
1.26223e-05
1.3798e-05
0.000239301
0.000160107
-1.04234e-06
0.000160373
-2.0342e-06
0.000160758
-2.89286e-06
0.000161251
-3.65513e-06
0.000161839
-4.33895e-06
0.000162516
-4.95695e-06
0.000163271
-5.51898e-06
0.0001641
-6.03277e-06
0.000164995
-6.50442e-06
0.000165951
-6.93881e-06
0.000166964
-7.3399e-06
0.000168028
-7.71098e-06
0.000169141
-8.05478e-06
0.000170298
-8.37359e-06
0.000171497
-8.66936e-06
0.000172733
-8.94372e-06
0.000174005
-9.19809e-06
0.000175309
-9.43367e-06
0.000176643
-9.65149e-06
0.000178004
-9.85243e-06
0.000179391
-1.00373e-05
0.0001808
-1.02067e-05
0.00018223
-1.03613e-05
0.000183678
-1.05015e-05
0.000185143
-1.06277e-05
0.000186623
-1.07405e-05
0.000188116
-1.08401e-05
0.000189619
-1.09267e-05
0.000191132
-1.10006e-05
0.000192652
-1.10621e-05
0.000194177
-1.11113e-05
0.000195706
-1.11484e-05
0.000197238
-1.11735e-05
0.000198769
-1.11866e-05
0.0002003
-1.11879e-05
0.000201828
-1.11774e-05
0.000203351
-1.11551e-05
0.000204868
-1.1121e-05
0.000206377
-1.10751e-05
0.000207877
-1.10172e-05
0.000209366
-1.09473e-05
0.000210842
-1.08652e-05
0.000212304
-1.07708e-05
0.00021375
-1.06638e-05
0.000215179
-1.0544e-05
0.000216588
-1.04111e-05
0.000217977
-1.02646e-05
0.000219343
-1.01042e-05
0.000220685
-9.92932e-06
0.000222001
-9.73938e-06
0.00022329
-9.5337e-06
0.000224549
-9.3115e-06
0.000225777
-9.07188e-06
0.000226973
-8.81383e-06
0.000228134
-8.53619e-06
0.000229259
-8.23761e-06
0.000230347
-7.91661e-06
0.000231396
-7.57148e-06
0.000232404
-7.2003e-06
0.000233371
-6.8009e-06
0.000234296
-6.37088e-06
0.000235179
-5.90753e-06
0.00023602
-5.40788e-06
0.000236819
-4.86867e-06
0.000237581
-4.2864e-06
0.000238306
-3.65733e-06
0.000239003
-2.97761e-06
0.000239677
-2.24342e-06
0.000240341
-1.4511e-06
0.000241007
-5.97432e-07
0.000241696
3.20018e-07
0.000242428
1.30108e-06
0.000243233
2.34331e-06
0.000244144
3.44172e-06
0.000245202
4.58726e-06
0.000246447
5.76572e-06
0.000247921
6.95684e-06
0.000249661
8.13378e-06
0.000251688
9.26337e-06
0.000254003
1.03078e-05
1.1229e-05
0.000256572
0.000171315
-1.1762e-06
0.000171591
-2.30983e-06
0.000171991
-3.29344e-06
0.000172505
-4.1682e-06
0.00017312
-4.95397e-06
0.000173827
-5.66446e-06
0.000174619
-6.31068e-06
0.000175488
-6.90141e-06
0.000176427
-7.44359e-06
0.000177431
-7.94279e-06
0.000178495
-8.40357e-06
0.000179614
-8.8297e-06
0.000180784
-9.22433e-06
0.000182001
-9.5901e-06
0.000183261
-9.92925e-06
0.000184561
-1.02437e-05
0.000185898
-1.0535e-05
0.00018727
-1.08046e-05
0.000188672
-1.10537e-05
0.000190103
-1.12833e-05
0.000191561
-1.14943e-05
0.000193042
-1.16875e-05
0.000194544
-1.18635e-05
0.000196066
-1.2023e-05
0.000197605
-1.21664e-05
0.000199159
-1.22942e-05
0.000200726
-1.24067e-05
0.000202304
-1.25044e-05
0.000203891
-1.25874e-05
0.000205485
-1.26561e-05
0.000207085
-1.27107e-05
0.000208688
-1.27513e-05
0.000210293
-1.2778e-05
0.000211898
-1.27911e-05
0.000213501
-1.27906e-05
0.0002151
-1.27765e-05
0.000216694
-1.2749e-05
0.000218281
-1.27079e-05
0.00021986
-1.26532e-05
0.000221428
-1.2585e-05
0.000222984
-1.25031e-05
0.000224526
-1.24074e-05
0.000226054
-1.22976e-05
0.000227564
-1.21737e-05
0.000229055
-1.20353e-05
0.000230526
-1.18821e-05
0.000231976
-1.17138e-05
0.000233402
-1.15299e-05
0.000234803
-1.133e-05
0.000236177
-1.11135e-05
0.000237523
-1.08796e-05
0.000238839
-1.06277e-05
0.000240125
-1.0357e-05
0.000241377
-1.00665e-05
0.000242596
-9.75503e-06
0.00024378
-9.4215e-06
0.000244928
-9.06455e-06
0.00024604
-8.68269e-06
0.000247114
-8.27429e-06
0.000248151
-7.83756e-06
0.00024915
-7.37057e-06
0.000250114
-6.87122e-06
0.000251044
-6.33735e-06
0.000251942
-5.76666e-06
0.000252812
-5.1569e-06
0.000253661
-4.50584e-06
0.000254495
-3.81149e-06
0.000255324
-3.07223e-06
0.00025616
-2.287e-06
0.000257018
-1.45556e-06
0.000257916
-5.78537e-07
0.000258876
3.41694e-07
0.000259919
1.29975e-06
0.000261074
2.28731e-06
0.000262367
3.29412e-06
0.000263826
4.30641e-06
0.000265476
5.30714e-06
0.000267334
6.27618e-06
0.000269406
7.19116e-06
0.000271684
8.02915e-06
8.76952e-06
0.000274144
0.000183308
-1.31412e-06
0.000183593
-2.59479e-06
0.000184009
-3.70915e-06
0.000184543
-4.70192e-06
0.000185184
-5.59494e-06
0.000185923
-6.40297e-06
0.00018675
-7.13808e-06
0.000187659
-7.81007e-06
0.000188642
-8.42676e-06
0.000189694
-8.99443e-06
0.000190809
-9.51823e-06
0.000191982
-1.00025e-05
0.000193209
-1.04507e-05
0.000194485
-1.08659e-05
0.000195806
-1.12507e-05
0.00019717
-1.16072e-05
0.000198573
-1.19372e-05
0.000200011
-1.22425e-05
0.000201482
-1.25243e-05
0.000202983
-1.27837e-05
0.000204511
-1.3022e-05
0.000206063
-1.32398e-05
0.000207638
-1.34381e-05
0.000209233
-1.36174e-05
0.000210845
-1.37783e-05
0.000212473
-1.39214e-05
0.000214113
-1.40472e-05
0.000215765
-1.41559e-05
0.000217426
-1.4248e-05
0.000219094
-1.43237e-05
0.000220767
-1.43832e-05
0.000222443
-1.44269e-05
0.00022412
-1.44549e-05
0.000225797
-1.44673e-05
0.000227471
-1.44643e-05
0.000229141
-1.44459e-05
0.000230804
-1.44123e-05
0.00023246
-1.43633e-05
0.000234106
-1.42991e-05
0.000235741
-1.42195e-05
0.000237363
-1.41246e-05
0.00023897
-1.40141e-05
0.00024056
-1.3888e-05
0.000242133
-1.37461e-05
0.000243686
-1.35881e-05
0.000245218
-1.34137e-05
0.000246727
-1.32227e-05
0.000248212
-1.30146e-05
0.000249671
-1.2789e-05
0.000251103
-1.25453e-05
0.000252507
-1.2283e-05
0.00025388
-1.20015e-05
0.000255224
-1.16999e-05
0.000256535
-1.13776e-05
0.000257813
-1.10335e-05
0.000259059
-1.06666e-05
0.00026027
-1.0276e-05
0.000261448
-9.86039e-06
0.000262592
-9.41858e-06
0.000263704
-8.94925e-06
0.000264785
-8.45105e-06
0.000265836
-7.92263e-06
0.000266862
-7.36268e-06
0.000267865
-6.76994e-06
0.000268852
-6.14338e-06
0.000269828
-5.48222e-06
0.000270803
-4.78607e-06
0.000271786
-4.05513e-06
0.000272789
-3.29033e-06
0.000273827
-2.49353e-06
0.000274916
-1.66762e-06
0.000276074
-8.16505e-07
0.00027732
5.43773e-08
0.000278671
9.36674e-07
0.000280145
1.82e-06
0.000281759
2.69224e-06
0.000283526
3.54043e-06
0.000285451
4.35024e-06
0.000287536
5.10711e-06
0.000289767
5.7974e-06
6.4101e-06
0.000292127
0.000196141
-1.4562e-06
0.000196436
-2.88899e-06
0.000196866
-4.13972e-06
0.00019742
-5.25591e-06
0.000198087
-6.2614e-06
0.000198856
-7.17193e-06
0.000199719
-8.00058e-06
0.000200667
-8.75816e-06
0.000201694
-9.45333e-06
0.000202792
-1.00931e-05
0.000203958
-1.06833e-05
0.000205184
-1.12286e-05
0.000206467
-1.17331e-05
0.000207802
-1.22003e-05
0.000209184
-1.26329e-05
0.000210611
-1.30335e-05
0.000212078
-1.34041e-05
0.000213582
-1.37466e-05
0.000215121
-1.40624e-05
0.00021669
-1.43529e-05
0.000218288
-1.46194e-05
0.000219911
-1.48627e-05
0.000221558
-1.50838e-05
0.000223224
-1.52835e-05
0.000224908
-1.54624e-05
0.000226608
-1.5621e-05
0.000228322
-1.576e-05
0.000230046
-1.58798e-05
0.000231779
-1.59807e-05
0.000233519
-1.60631e-05
0.000235263
-1.61274e-05
0.000237011
-1.61737e-05
0.000238758
-1.62023e-05
0.000240505
-1.62134e-05
0.000242248
-1.62071e-05
0.000243986
-1.61836e-05
0.000245717
-1.6143e-05
0.000247439
-1.60852e-05
0.000249151
-1.60104e-05
0.00025085
-1.59185e-05
0.000252536
-1.58096e-05
0.000254205
-1.56834e-05
0.000255857
-1.55399e-05
0.000257491
-1.53791e-05
0.000259103
-1.52006e-05
0.000260694
-1.50042e-05
0.000262261
-1.47898e-05
0.000263804
-1.45569e-05
0.000265321
-1.43052e-05
0.00026681
-1.40343e-05
0.000268271
-1.37437e-05
0.000269702
-1.34329e-05
0.000271104
-1.31013e-05
0.000272475
-1.27483e-05
0.000273815
-1.23732e-05
0.000275123
-1.19753e-05
0.000276401
-1.15539e-05
0.000277649
-1.11081e-05
0.000278868
-1.06372e-05
0.000280059
-1.01404e-05
0.000281225
-9.61709e-06
0.000282369
-9.06659e-06
0.000283495
-8.48843e-06
0.000284608
-7.88237e-06
0.000285713
-7.24844e-06
0.000286818
-6.58705e-06
0.000287931
-5.8991e-06
0.000289062
-5.18608e-06
0.000290222
-4.45021e-06
0.000291423
-3.69455e-06
0.000292678
-2.92308e-06
0.000294003
-2.1407e-06
0.00029541
-1.35323e-06
0.000296914
-5.66857e-07
0.000298524
2.10149e-07
0.000300248
9.6826e-07
0.000302091
1.6975e-06
0.000304053
2.38759e-06
0.000306131
3.02932e-06
0.000308314
3.61479e-06
4.13826e-06
0.000310586
0.000209873
-1.60248e-06
0.000210176
-3.19226e-06
0.000210621
-4.58481e-06
0.000211195
-5.82968e-06
0.000211886
-6.95271e-06
0.000212685
-7.97059e-06
0.000213582
-8.89735e-06
0.000214569
-9.74474e-06
0.000215638
-1.05223e-05
0.000216783
-1.12378e-05
0.000217998
-1.18975e-05
0.000219276
-1.2507e-05
0.000220614
-1.30706e-05
0.000222006
-1.35921e-05
0.000223448
-1.40748e-05
0.000224936
-1.45214e-05
0.000226467
-1.49342e-05
0.000228036
-1.53154e-05
0.000229641
-1.56666e-05
0.000231277
-1.59893e-05
0.000232943
-1.62849e-05
0.000234635
-1.65545e-05
0.000236351
-1.6799e-05
0.000238087
-1.70195e-05
0.000239842
-1.72165e-05
0.000241612
-1.73909e-05
0.000243396
-1.75431e-05
0.00024519
-1.76738e-05
0.000246993
-1.77833e-05
0.000248803
-1.78721e-05
0.000250616
-1.79406e-05
0.000252432
-1.7989e-05
0.000254247
-1.80176e-05
0.000256061
-1.80266e-05
0.000257871
-1.80163e-05
0.000259674
-1.79868e-05
0.00026147
-1.79383e-05
0.000263256
-1.78708e-05
0.00026503
-1.77844e-05
0.000266791
-1.76793e-05
0.000268537
-1.75553e-05
0.000270267
-1.74125e-05
0.000271978
-1.72508e-05
0.000273669
-1.70702e-05
0.000275339
-1.68705e-05
0.000276987
-1.66515e-05
0.000278611
-1.64132e-05
0.000280209
-1.61552e-05
0.000281782
-1.58774e-05
0.000283327
-1.55795e-05
0.000284845
-1.5261e-05
0.000286334
-1.49218e-05
0.000287794
-1.45614e-05
0.000289225
-1.41794e-05
0.000290628
-1.37755e-05
0.000292002
-1.33493e-05
0.000293349
-1.29003e-05
0.000294669
-1.24283e-05
0.000295965
-1.19329e-05
0.000297239
-1.1414e-05
0.000298493
-1.08715e-05
0.000299732
-1.03054e-05
0.00030096
-9.71618e-06
0.000302182
-9.10426e-06
0.000303404
-8.47059e-06
0.000304634
-7.81644e-06
0.000305878
-7.14359e-06
0.000307146
-6.45433e-06
0.000308448
-5.75155e-06
0.000309792
-5.03878e-06
0.000311189
-4.32025e-06
0.00031265
-3.60081e-06
0.000314182
-2.88591e-06
0.000315797
-2.18142e-06
0.0003175
-1.49344e-06
0.000319297
-8.27887e-07
0.000321186
-1.91424e-07
0.000323164
4.0918e-07
0.000325225
9.67855e-07
0.000327361
1.47978e-06
1.94203e-06
0.000329557
0.000224565
-1.75294e-06
0.000224877
-3.50436e-06
0.000225337
-5.04391e-06
0.000225929
-6.42253e-06
0.000226645
-7.66797e-06
0.000227472
-8.79789e-06
0.000228402
-9.82716e-06
0.000229426
-1.07685e-05
0.000230536
-1.16322e-05
0.000231726
-1.24269e-05
0.000232988
-1.31595e-05
0.000234317
-1.3836e-05
0.000235708
-1.44612e-05
0.000237156
-1.50394e-05
0.000238656
-1.55743e-05
0.000240203
-1.60688e-05
0.000241795
-1.65255e-05
0.000243427
-1.69468e-05
0.000245095
-1.73345e-05
0.000246797
-1.76904e-05
0.000248528
-1.8016e-05
0.000250287
-1.83124e-05
0.000252069
-1.85809e-05
0.000253872
-1.88225e-05
0.000255694
-1.90379e-05
0.000257532
-1.9228e-05
0.000259382
-1.93934e-05
0.000261244
-1.95347e-05
0.000263113
-1.96525e-05
0.000264989
-1.97473e-05
0.000266868
-1.98194e-05
0.000268749
-1.98692e-05
0.000270629
-1.9897e-05
0.000272506
-1.99032e-05
0.000274378
-1.98881e-05
0.000276243
-1.98517e-05
0.0002781
-1.97944e-05
0.000279946
-1.97163e-05
0.000281779
-1.96174e-05
0.000283598
-1.94981e-05
0.000285401
-1.93582e-05
0.000287187
-1.91979e-05
0.000288954
-1.90173e-05
0.0002907
-1.88162e-05
0.000292425
-1.85947e-05
0.000294127
-1.83528e-05
0.000295804
-1.80904e-05
0.000297457
-1.78074e-05
0.000299083
-1.75038e-05
0.000300683
-1.71793e-05
0.000302257
-1.68339e-05
0.000303802
-1.64675e-05
0.000305321
-1.60799e-05
0.000306813
-1.5671e-05
0.000308278
-1.52408e-05
0.000309719
-1.47892e-05
0.000311135
-1.43163e-05
0.000312529
-1.38221e-05
0.000313903
-1.33068e-05
0.00031526
-1.27708e-05
0.000316603
-1.22145e-05
0.000317936
-1.16387e-05
0.000319265
-1.10442e-05
0.000320593
-1.04323e-05
0.000321927
-9.80441e-06
0.000323273
-9.16243e-06
0.000324638
-8.50861e-06
0.000326029
-7.8456e-06
0.000327454
-7.1765e-06
0.00032892
-6.50483e-06
0.000330435
-5.83453e-06
0.000332004
-5.16991e-06
0.000333634
-4.51555e-06
0.000335328
-3.87624e-06
0.000337092
-3.25678e-06
0.000338926
-2.6619e-06
0.00034083
-2.09607e-06
0.000342802
-1.56277e-06
0.000344836
-1.06524e-06
0.000346921
-6.06061e-07
-1.86441e-07
0.00034905
0.000240286
-1.90746e-06
0.000240607
-3.8249e-06
0.000241079
-5.5163e-06
0.00024169
-7.0335e-06
0.000242428
-8.40598e-06
0.000243283
-9.65238e-06
0.000244245
-1.07884e-05
0.000245304
-1.18276e-05
0.000246453
-1.27812e-05
0.000247685
-1.36584e-05
0.000248992
-1.44669e-05
0.00025037
-1.52131e-05
0.000251811
-1.59025e-05
0.000253312
-1.65397e-05
0.000254867
-1.71286e-05
0.000256471
-1.76727e-05
0.000258121
-1.81748e-05
0.000259812
-1.86375e-05
0.000261541
-1.90629e-05
0.000263304
-1.94529e-05
0.000265097
-1.98091e-05
0.000266918
-2.0133e-05
0.000268763
-2.04258e-05
0.00027063
-2.06886e-05
0.000272515
-2.09225e-05
0.000274416
-2.11282e-05
0.000276329
-2.13066e-05
0.000278253
-2.14583e-05
0.000280185
-2.15839e-05
0.000282123
-2.1684e-05
0.000284063
-2.17591e-05
0.000286004
-2.18097e-05
0.000287943
-2.1836e-05
0.000289879
-2.18386e-05
0.000291809
-2.18177e-05
0.000293731
-2.17736e-05
0.000295644
-2.17066e-05
0.000297545
-2.16169e-05
0.000299433
-2.15047e-05
0.000301305
-2.13703e-05
0.000303161
-2.12138e-05
0.000304999
-2.10354e-05
0.000306817
-2.08351e-05
0.000308615
-2.06132e-05
0.00031039
-2.03697e-05