/*--------------------------------*- C++ -*----------------------------------*\
| =========                 |                                                 |
| \\      /  F ield         | OpenFOAM: The Open Source CFD Toolbox           |
|  \\    /   O peration     | Version:  2106                                  |
|   \\  /    A nd           | Website:  www.openfoam.com                      |
|    \\/     M anipulation  |                                                 |
\*---------------------------------------------------------------------------*/
FoamFile
{
    version     2.0;
    format      ascii;
    arch        "LSB;label=32;scalar=64";
    class       volScalarField;
    location    "6.4";
    object      T;
}
// * * * * * * * * * * * * * * * * * * * * * * * * * * * * * * * * * * * * * //

dimensions      [0 0 0 1 0 0 0];

internalField   nonuniform List<scalar> 
12013
(
300.003
300.01
300.017
300.025
300.033
300.041
300.049
300.058
300.067
300.077
300.086
300.097
300.107
300.118
300.13
300.142
300.154
300.167
300.18
300.194
300.208
300.222
300.237
300.253
300.269
300.286
300.303
300.321
300.339
300.358
300.378
300.398
300.419
300.44
300.462
300.485
300.508
300.532
300.557
300.583
300.609
300.636
300.664
300.692
300.722
300.752
300.783
300.815
300.848
300.882
300.917
300.952
300.989
301.027
301.066
301.106
301.147
301.189
301.233
301.278
301.324
301.372
301.422
301.472
301.525
301.579
301.636
301.694
301.755
301.817
301.883
301.952
302.023
302.099
302.179
302.263
302.354
302.453
302.562
302.686
302.833
300.003
300.01
300.017
300.025
300.033
300.041
300.049
300.058
300.067
300.077
300.086
300.097
300.107
300.118
300.13
300.142
300.154
300.167
300.18
300.194
300.208
300.222
300.237
300.253
300.269
300.286
300.303
300.321
300.339
300.358
300.378
300.398
300.419
300.44
300.462
300.485
300.508
300.532
300.557
300.583
300.609
300.636
300.664
300.692
300.722
300.752
300.783
300.815
300.848
300.882
300.916
300.952
300.989
301.027
301.066
301.106
301.147
301.189
301.233
301.278
301.324
301.372
301.421
301.472
301.524
301.579
301.635
301.693
301.753
301.816
301.881
301.95
302.021
302.096
302.175
302.259
302.348
302.444
302.549
302.664
302.791
300.003
300.01
300.017
300.025
300.033
300.041
300.049
300.058
300.067
300.077
300.086
300.097
300.107
300.118
300.13
300.142
300.154
300.167
300.18
300.194
300.208
300.222
300.237
300.253
300.269
300.286
300.303
300.321
300.339
300.358
300.378
300.398
300.419
300.44
300.462
300.485
300.508
300.532
300.557
300.583
300.609
300.636
300.664
300.692
300.721
300.752
300.783
300.815
300.848
300.881
300.916
300.952
300.988
301.026
301.065
301.105
301.146
301.188
301.232
301.277
301.323
301.371
301.42
301.47
301.523
301.577
301.633
301.691
301.751
301.813
301.878
301.945
302.016
302.09
302.167
302.249
302.335
302.427
302.525
302.629
302.736
300.003
300.01
300.017
300.025
300.033
300.041
300.049
300.058
300.067
300.077
300.086
300.097
300.107
300.118
300.13
300.142
300.154
300.167
300.18
300.193
300.208
300.222
300.237
300.253
300.269
300.286
300.303
300.321
300.339
300.358
300.378
300.398
300.419
300.44
300.462
300.485
300.508
300.532
300.557
300.582
300.609
300.636
300.663
300.692
300.721
300.751
300.782
300.814
300.847
300.881
300.915
300.951
300.988
301.025
301.064
301.104
301.145
301.187
301.231
301.275
301.321
301.369
301.418
301.468
301.52
301.574
301.629
301.687
301.746
301.808
301.872
301.938
302.007
302.079
302.155
302.234
302.316
302.402
302.492
302.585
302.679
300.003
300.01
300.017
300.025
300.033
300.041
300.049
300.058
300.067
300.077
300.086
300.097
300.107
300.118
300.13
300.142
300.154
300.167
300.18
300.193
300.208
300.222
300.237
300.253
300.269
300.286
300.303
300.321
300.339
300.358
300.378
300.398
300.418
300.44
300.462
300.484
300.508
300.532
300.557
300.582
300.608
300.635
300.663
300.691
300.721
300.751
300.782
300.814
300.846
300.88
300.915
300.95
300.987
301.024
301.063
301.103
301.144
301.186
301.229
301.273
301.319
301.366
301.415
301.465
301.516
301.569
301.624
301.681
301.74
301.8
301.863
301.928
301.996
302.065
302.138
302.213
302.291
302.371
302.454
302.537
302.62
300.003
300.01
300.017
300.025
300.033
300.041
300.049
300.058
300.067
300.077
300.086
300.097
300.107
300.118
300.13
300.142
300.154
300.167
300.18
300.193
300.208
300.222
300.237
300.253
300.269
300.286
300.303
300.321
300.339
300.358
300.377
300.397
300.418
300.44
300.462
300.484
300.508
300.532
300.556
300.582
300.608
300.635
300.662
300.691
300.72
300.75
300.781
300.813
300.845
300.879
300.913
300.949
300.985
301.023
301.061
301.101
301.141
301.183
301.226
301.27
301.316
301.362
301.411
301.46
301.511
301.564
301.618
301.674
301.731
301.79
301.852
301.915
301.98
302.047
302.117
302.188
302.261
302.335
302.411
302.486
302.56
300.003
300.01
300.017
300.025
300.033
300.041
300.049
300.058
300.067
300.077
300.086
300.097
300.107
300.118
300.13
300.141
300.154
300.167
300.18
300.193
300.207
300.222
300.237
300.253
300.269
300.286
300.303
300.32
300.339
300.358
300.377
300.397
300.418
300.439
300.461
300.484
300.507
300.531
300.556
300.581
300.607
300.634
300.662
300.69
300.719
300.749
300.78
300.812
300.844
300.878
300.912
300.947
300.983
301.021
301.059
301.098
301.139
301.18
301.223
301.266
301.311
301.358
301.405
301.454
301.504
301.556
301.609
301.664
301.72
301.778
301.837
301.898
301.961
302.025
302.091
302.158
302.226
302.295
302.364
302.433
302.5
300.003
300.01
300.017
300.025
300.033
300.041
300.049
300.058
300.067
300.076
300.086
300.097
300.107
300.118
300.13
300.141
300.154
300.166
300.18
300.193
300.207
300.222
300.237
300.253
300.269
300.285
300.303
300.32
300.339
300.357
300.377
300.397
300.418
300.439
300.461
300.483
300.507
300.531
300.555
300.58
300.606
300.633
300.661
300.689
300.718
300.748
300.779
300.81
300.843
300.876
300.91
300.945
300.981
301.018
301.056
301.095
301.135
301.176
301.218
301.262
301.306
301.352
301.398
301.447
301.496
301.547
301.599
301.652
301.707
301.763
301.82
301.879
301.939
302
302.062
302.125
302.188
302.252
302.316
302.378
302.44
300.003
300.01
300.017
300.025
300.033
300.041
300.049
300.058
300.067
300.076
300.086
300.096
300.107
300.118
300.13
300.141
300.154
300.166
300.179
300.193
300.207
300.222
300.237
300.252
300.269
300.285
300.302
300.32
300.338
300.357
300.377
300.397
300.417
300.438
300.46
300.483
300.506
300.53
300.554
300.58
300.606
300.632
300.66
300.688
300.717
300.746
300.777
300.808
300.841
300.874
300.907
300.942
300.978
301.015
301.052
301.091
301.13
301.171
301.213
301.255
301.299
301.344
301.39
301.437
301.486
301.535
301.586
301.637
301.69
301.744
301.799
301.856
301.913
301.971
302.029
302.088
302.147
302.206
302.265
302.323
302.379
300.003
300.01
300.017
300.025
300.033
300.041
300.049
300.058
300.067
300.076
300.086
300.096
300.107
300.118
300.129
300.141
300.154
300.166
300.179
300.193
300.207
300.222
300.237
300.252
300.268
300.285
300.302
300.32
300.338
300.357
300.376
300.396
300.417
300.438
300.46
300.482
300.505
300.529
300.553
300.579
300.604
300.631
300.658
300.686
300.715
300.745
300.775
300.806
300.838
300.871
300.904
300.939
300.974
301.011
301.048
301.086
301.125
301.165
301.206
301.248
301.291
301.335
301.38
301.426
301.473
301.521
301.57
301.62
301.671
301.723
301.776
301.829
301.884
301.938
301.993
302.048
302.103
302.158
302.212
302.266
302.318
300.003
300.01
300.017
300.025
300.033
300.041
300.049
300.058
300.067
300.076
300.086
300.096
300.107
300.118
300.129
300.141
300.153
300.166
300.179
300.193
300.207
300.221
300.236
300.252
300.268
300.285
300.302
300.319
300.337
300.356
300.376
300.395
300.416
300.437
300.459
300.481
300.504
300.528
300.552
300.577
300.603
300.629
300.656
300.684
300.713
300.742
300.772
300.803
300.835
300.867
300.901
300.935
300.97
301.006
301.042
301.08
301.118
301.158
301.198
301.239
301.281
301.324
301.368
301.413
301.459
301.505
301.553
301.601
301.65
301.699
301.75
301.8
301.851
301.903
301.954
302.006
302.057
302.108
302.158
302.208
302.257
300.003
300.01
300.017
300.025
300.033
300.041
300.049
300.058
300.067
300.076
300.086
300.096
300.107
300.118
300.129
300.141
300.153
300.166
300.179
300.193
300.207
300.221
300.236
300.252
300.268
300.284
300.301
300.319
300.337
300.356
300.375
300.395
300.415
300.436
300.458
300.48
300.503
300.527
300.551
300.576
300.601
300.627
300.654
300.682
300.71
300.739
300.769
300.8
300.831
300.863
300.896
300.93
300.964
301
301.036
301.073
301.111
301.149
301.189
301.229
301.27
301.312
301.354
301.398
301.442
301.487
301.532
301.579
301.625
301.673
301.72
301.768
301.817
301.865
301.913
301.961
302.009
302.057
302.103
302.149
302.194
300.003
300.01
300.017
300.025
300.033
300.041
300.049
300.058
300.067
300.076
300.086
300.096
300.107
300.118
300.129
300.141
300.153
300.166
300.179
300.192
300.206
300.221
300.236
300.251
300.267
300.284
300.301
300.318
300.336
300.355
300.374
300.394
300.414
300.435
300.457
300.479
300.502
300.525
300.549
300.574
300.599
300.625
300.652
300.679
300.707
300.736
300.766
300.796
300.827
300.858
300.891
300.924
300.958
300.993
301.028
301.064
301.101
301.139
301.178
301.217
301.257
301.297
301.338
301.38
301.423
301.466
301.51
301.554
301.598
301.643
301.688
301.734
301.779
301.825
301.87
301.915
301.959
302.004
302.047
302.09
302.132
300.003
300.01
300.017
300.025
300.032
300.041
300.049
300.058
300.067
300.076
300.086
300.096
300.107
300.118
300.129
300.141
300.153
300.165
300.178
300.192
300.206
300.22
300.235
300.251
300.267
300.283
300.3
300.317
300.335
300.354
300.373
300.393
300.413
300.434
300.455
300.477
300.5
300.523
300.547
300.571
300.597
300.622
300.649
300.676
300.704
300.732
300.761
300.791
300.822
300.853
300.885
300.917
300.951
300.985
301.019
301.055
301.091
301.127
301.165
301.203
301.242
301.281
301.321
301.361
301.402
301.443
301.485
301.527
301.569
301.612
301.654
301.697
301.74
301.782
301.825
301.867
301.908
301.949
301.99
302.03
302.069
300.003
300.01
300.017
300.025
300.032
300.04
300.049
300.058
300.067
300.076
300.086
300.096
300.106
300.117
300.129
300.14
300.153
300.165
300.178
300.192
300.206
300.22
300.235
300.25
300.266
300.282
300.299
300.317
300.334
300.353
300.372
300.391
300.412
300.432
300.454
300.475
300.498
300.521
300.544
300.569
300.594
300.619
300.645
300.672
300.699
300.727
300.756
300.786
300.816
300.846
300.877
300.909
300.942
300.975
301.009
301.044
301.079
301.114
301.151
301.187
301.225
301.262
301.301
301.339
301.378
301.418
301.457
301.497
301.537
301.578
301.618
301.658
301.698
301.738
301.777
301.817
301.856
301.894
301.932
301.969
302.006
300.003
300.01
300.017
300.025
300.032
300.04
300.049
300.057
300.066
300.076
300.086
300.096
300.106
300.117
300.128
300.14
300.152
300.165
300.178
300.191
300.205
300.219
300.234
300.249
300.265
300.281
300.298
300.316
300.333
300.352
300.371
300.39
300.41
300.43
300.452
300.473
300.495
300.518
300.542
300.566
300.59
300.615
300.641
300.667
300.694
300.722
300.75
300.779
300.809
300.839
300.869
300.9
300.932
300.965
300.997
301.031
301.065
301.099
301.134
301.17
301.206
301.242
301.279
301.316
301.353
301.39
301.428
301.466
301.504
301.542
301.579
301.617
301.655
301.692
301.729
301.766
301.802
301.838
301.873
301.908
301.942
300.003
300.01
300.017
300.025
300.032
300.04
300.049
300.057
300.066
300.076
300.085
300.095
300.106
300.117
300.128
300.14
300.152
300.164
300.177
300.191
300.204
300.219
300.233
300.249
300.264
300.28
300.297
300.314
300.332
300.35
300.369
300.388
300.408
300.428
300.449
300.471
300.493
300.515
300.538
300.562
300.586
300.611
300.636
300.662
300.689
300.716
300.744
300.772
300.801
300.83
300.86
300.89
300.921
300.952
300.984
301.017
301.05
301.083
301.117
301.151
301.185
301.22
301.255
301.29
301.325
301.361
301.396
301.432
301.468
301.504
301.539
301.575
301.61
301.645
301.679
301.714
301.747
301.781
301.814
301.846
301.878
300.003
300.01
300.017
300.025
300.032
300.04
300.049
300.057
300.066
300.075
300.085
300.095
300.106
300.116
300.128
300.139
300.151
300.164
300.177
300.19
300.204
300.218
300.233
300.248
300.263
300.279
300.296
300.313
300.33
300.348
300.367
300.386
300.406
300.426
300.446
300.468
300.489
300.512
300.534
300.558
300.582
300.606
300.631
300.656
300.682
300.709
300.736
300.763
300.791
300.82
300.849
300.879
300.909
300.939
300.97
301.001
301.033
301.065
301.097
301.13
301.162
301.196
301.229
301.262
301.296
301.329
301.363
301.397
301.43
301.464
301.497
301.53
301.563
301.596
301.628
301.66
301.692
301.723
301.754
301.784
301.814
300.003
300.01
300.017
300.024
300.032
300.04
300.048
300.057
300.066
300.075
300.085
300.095
300.105
300.116
300.127
300.139
300.151
300.163
300.176
300.189
300.203
300.217
300.232
300.247
300.262
300.278
300.294
300.311
300.329
300.347
300.365
300.384
300.403
300.423
300.443
300.464
300.486
300.507
300.53
300.553
300.576
300.6
300.625
300.649
300.675
300.701
300.727
300.754
300.781
300.809
300.837
300.866
300.895
300.924
300.954
300.984
301.014
301.045
301.076
301.107
301.138
301.17
301.201
301.233
301.265
301.296
301.328
301.36
301.391
301.423
301.454
301.485
301.516
301.547
301.577
301.607
301.636
301.665
301.694
301.722
301.75
300.003
300.01
300.017
300.024
300.032
300.04
300.048
300.057
300.066
300.075
300.085
300.095
300.105
300.116
300.127
300.138
300.15
300.162
300.175
300.188
300.202
300.216
300.23
300.245
300.261
300.276
300.293
300.309
300.327
300.344
300.362
300.381
300.4
300.42
300.44
300.46
300.481
300.503
300.525
300.547
300.57
300.594
300.617
300.642
300.667
300.692
300.717
300.743
300.77
300.797
300.824
300.852
300.879
300.908
300.936
300.965
300.994
301.023
301.053
301.082
301.112
301.142
301.172
301.202
301.232
301.262
301.292
301.321
301.351
301.381
301.41
301.439
301.468
301.496
301.524
301.552
301.58
301.607
301.634
301.66
301.686
300.003
300.01
300.017
300.024
300.032
300.04
300.048
300.057
300.065
300.075
300.084
300.094
300.104
300.115
300.126
300.138
300.149
300.162
300.174
300.187
300.201
300.215
300.229
300.244
300.259
300.275
300.291
300.307
300.324
300.342
300.359
300.378
300.397
300.416
300.436
300.456
300.476
300.498
300.519
300.541
300.563
300.586
300.61
300.633
300.657
300.682
300.707
300.732
300.757
300.783
300.81
300.836
300.863
300.89
300.917
300.945
300.972
301
301.028
301.056
301.085
301.113
301.141
301.169
301.198
301.226
301.254
301.282
301.31
301.337
301.365
301.392
301.419
301.445
301.472
301.498
301.524
301.549
301.574
301.599
301.623
300.003
300.01
300.017
300.024
300.032
300.04
300.048
300.056
300.065
300.074
300.084
300.094
300.104
300.114
300.125
300.137
300.149
300.161
300.173
300.186
300.199
300.213
300.227
300.242
300.257
300.272
300.288
300.305
300.321
300.339
300.356
300.374
300.393
300.412
300.431
300.451
300.471
300.492
300.513
300.534
300.556
300.578
300.601
300.624
300.647
300.671
300.695
300.719
300.744
300.769
300.794
300.819
300.845
300.871
300.897
300.923
300.949
300.976
301.002
301.029
301.056
301.082
301.109
301.136
301.162
301.189
301.215
301.241
301.267
301.293
301.319
301.344
301.369
301.394
301.419
301.443
301.467
301.491
301.514
301.537
301.56
300.003
300.01
300.017
300.024
300.032
300.039
300.048
300.056
300.065
300.074
300.083
300.093
300.103
300.114
300.125
300.136
300.148
300.16
300.172
300.185
300.198
300.212
300.226
300.24
300.255
300.27
300.286
300.302
300.318
300.335
300.353
300.37
300.388
300.407
300.426
300.445
300.465
300.485
300.506
300.526
300.548
300.569
300.591
300.613
300.636
300.659
300.682
300.705
300.729
300.753
300.777
300.801
300.826
300.851
300.875
300.9
300.925
300.95
300.975
301.001
301.026
301.051
301.076
301.101
301.126
301.151
301.175
301.2
301.224
301.248
301.272
301.296
301.32
301.343
301.366
301.389
301.411
301.433
301.455
301.476
301.497
300.003
300.01
300.017
300.024
300.031
300.039
300.047
300.056
300.064
300.073
300.083
300.092
300.103
300.113
300.124
300.135
300.146
300.158
300.171
300.183
300.196
300.21
300.224
300.238
300.252
300.267
300.283
300.299
300.315
300.331
300.348
300.366
300.383
300.402
300.42
300.439
300.458
300.478
300.498
300.518
300.538
300.559
300.581
300.602
300.624
300.646
300.668
300.69
300.713
300.736
300.759
300.782
300.806
300.829
300.853
300.876
300.9
300.924
300.947
300.971
300.995
301.018
301.042
301.066
301.089
301.112
301.135
301.158
301.181
301.204
301.226
301.248
301.27
301.292
301.313
301.334
301.355
301.376
301.396
301.416
301.436
300.003
300.01
300.017
300.024
300.031
300.039
300.047
300.055
300.064
300.073
300.082
300.092
300.102
300.112
300.123
300.134
300.145
300.157
300.169
300.182
300.194
300.208
300.221
300.235
300.25
300.264
300.28
300.295
300.311
300.327
300.344
300.361
300.378
300.396
300.414
300.432
300.451
300.47
300.489
300.509
300.529
300.549
300.569
300.59
300.611
300.632
300.653
300.675
300.696
300.718
300.74
300.762
300.784
300.807
300.829
300.851
300.874
300.896
300.918
300.941
300.963
300.985
301.007
301.029
301.051
301.073
301.095
301.116
301.138
301.159
301.18
301.2
301.221
301.241
301.261
301.281
301.3
301.319
301.338
301.357
301.375
300.003
300.01
300.017
300.024
300.031
300.039
300.047
300.055
300.063
300.072
300.081
300.091
300.101
300.111
300.122
300.133
300.144
300.155
300.167
300.18
300.192
300.205
300.219
300.233
300.247
300.261
300.276
300.291
300.307
300.323
300.339
300.355
300.372
300.389
300.407
300.425
300.443
300.461
300.48
300.499
300.518
300.537
300.557
300.577
300.597
300.617
300.637
300.658
300.679
300.699
300.72
300.741
300.762
300.783
300.805
300.826
300.847
300.868
300.889
300.91
300.931
300.952
300.973
300.993
301.014
301.034
301.054
301.074
301.094
301.114
301.133
301.153
301.172
301.191
301.209
301.228
301.246
301.264
301.281
301.299
301.316
300.003
300.01
300.016
300.023
300.031
300.038
300.046
300.054
300.063
300.072
300.081
300.09
300.1
300.11
300.12
300.131
300.142
300.154
300.165
300.178
300.19
300.203
300.216
300.23
300.243
300.258
300.272
300.287
300.302
300.318
300.333
300.349
300.366
300.382
300.399
300.417
300.434
300.452
300.47
300.488
300.507
300.525
300.544
300.563
300.582
300.602
300.621
300.641
300.66
300.68
300.7
300.72
300.74
300.76
300.78
300.799
300.819
300.839
300.859
300.879
300.898
300.918
300.938
300.957
300.976
300.995
301.014
301.033
301.051
301.07
301.088
301.106
301.124
301.141
301.159
301.176
301.193
301.21
301.226
301.242
301.258
300.003
300.01
300.016
300.023
300.03
300.038
300.046
300.054
300.062
300.071
300.08
300.089
300.099
300.109
300.119
300.13
300.14
300.152
300.163
300.175
300.187
300.2
300.213
300.226
300.24
300.254
300.268
300.282
300.297
300.312
300.327
300.343
300.359
300.375
300.391
300.408
300.425
300.442
300.459
300.477
300.495
300.513
300.531
300.549
300.567
300.586
300.604
300.623
300.641
300.66
300.679
300.698
300.717
300.735
300.754
300.773
300.792
300.81
300.829
300.848
300.866
300.884
300.903
300.921
300.939
300.957
300.974
300.992
301.009
301.026
301.043
301.06
301.077
301.093
301.109
301.125
301.141
301.157
301.172
301.187
301.202
300.003
300.009
300.016
300.023
300.03
300.037
300.045
300.053
300.061
300.07
300.079
300.088
300.097
300.107
300.117
300.128
300.139
300.15
300.161
300.173
300.185
300.197
300.21
300.223
300.236
300.249
300.263
300.277
300.292
300.306
300.321
300.336
300.352
300.367
300.383
300.399
300.415
300.432
300.449
300.465
300.482
300.499
300.517
300.534
300.551
300.569
300.587
300.604
300.622
300.64
300.658
300.675
300.693
300.711
300.729
300.746
300.764
300.782
300.799
300.817
300.834
300.851
300.868
300.885
300.902
300.919
300.935
300.952
300.968
300.984
301
301.016
301.031
301.046
301.062
301.076
301.091
301.106
301.12
301.134
301.148
300.003
300.009
300.016
300.023
300.03
300.037
300.045
300.052
300.061
300.069
300.078
300.087
300.096
300.106
300.116
300.126
300.137
300.147
300.159
300.17
300.182
300.194
300.206
300.219
300.232
300.245
300.258
300.272
300.286
300.3
300.314
300.329
300.344
300.359
300.374
300.39
300.405
300.421
300.437
300.453
300.47
300.486
300.502
300.519
300.536
300.552
300.569
300.586
300.603
300.619
300.636
300.653
300.67
300.687
300.703
300.72
300.737
300.753
300.77
300.786
300.802
300.818
300.835
300.85
300.866
300.882
300.897
300.913
300.928
300.943
300.958
300.972
300.987
301.001
301.015
301.029
301.043
301.057
301.07
301.083
301.097
300.003
300.009
300.016
300.022
300.029
300.036
300.044
300.052
300.06
300.068
300.077
300.086
300.095
300.104
300.114
300.124
300.134
300.145
300.156
300.167
300.179
300.19
300.202
300.215
300.227
300.24
300.253
300.266
300.28
300.294
300.308
300.322
300.336
300.351
300.365
300.38
300.395
300.41
300.426
300.441
300.457
300.472
300.488
300.504
300.52
300.535
300.551
300.567
300.583
300.599
300.615
300.631
300.647
300.663
300.678
300.694
300.71
300.725
300.741
300.756
300.772
300.787
300.802
300.817
300.832
300.846
300.861
300.875
300.889
300.903
300.917
300.931
300.945
300.958
300.971
300.985
300.997
301.01
301.023
301.035
301.047
300.003
300.009
300.015
300.022
300.029
300.036
300.043
300.051
300.059
300.067
300.075
300.084
300.093
300.103
300.112
300.122
300.132
300.143
300.153
300.164
300.175
300.187
300.198
300.21
300.223
300.235
300.248
300.261
300.274
300.287
300.3
300.314
300.328
300.342
300.356
300.37
300.385
300.399
300.414
300.429
300.444
300.459
300.474
300.489
300.504
300.519
300.534
300.549
300.564
300.579
300.594
300.609
300.624
300.639
300.654
300.669
300.684
300.699
300.713
300.728
300.742
300.756
300.771
300.785
300.798
300.812
300.826
300.839
300.853
300.866
300.879
300.892
300.905
300.917
300.93
300.942
300.954
300.966
300.978
300.989
301.001
300.003
300.009
300.015
300.022
300.028
300.035
300.043
300.05
300.058
300.066
300.074
300.083
300.092
300.101
300.11
300.12
300.13
300.14
300.15
300.161
300.172
300.183
300.195
300.206
300.218
300.23
300.242
300.255
300.268
300.28
300.293
300.307
300.32
300.333
300.347
300.361
300.375
300.389
300.403
300.417
300.431
300.445
300.459
300.474
300.488
300.503
300.517
300.531
300.546
300.56
300.574
300.589
300.603
300.617
300.631
300.645
300.659
300.673
300.687
300.7
300.714
300.727
300.741
300.754
300.767
300.78
300.793
300.806
300.818
300.831
300.843
300.855
300.867
300.879
300.891
300.902
300.914
300.925
300.936
300.947
300.958
300.003
300.009
300.015
300.021
300.028
300.035
300.042
300.049
300.057
300.065
300.073
300.081
300.09
300.099
300.108
300.118
300.127
300.137
300.147
300.158
300.169
300.179
300.191
300.202
300.213
300.225
300.237
300.249
300.261
300.274
300.286
300.299
300.312
300.325
300.338
300.351
300.365
300.378
300.391
300.405
300.419
300.432
300.446
300.46
300.473
300.487
300.501
300.514
300.528
300.542
300.555
300.569
300.582
300.596
300.609
300.623
300.636
300.649
300.662
300.675
300.688
300.7
300.713
300.726
300.738
300.75
300.762
300.774
300.786
300.798
300.81
300.821
300.832
300.843
300.855
300.865
300.876
300.887
300.897
300.908
300.918
300.003
300.009
300.015
300.021
300.027
300.034
300.041
300.048
300.056
300.064
300.072
300.08
300.088
300.097
300.106
300.115
300.125
300.135
300.145
300.155
300.165
300.176
300.187
300.198
300.209
300.22
300.232
300.243
300.255
300.267
300.28
300.292
300.304
300.317
300.329
300.342
300.355
300.368
300.381
300.394
300.407
300.42
300.433
300.446
300.459
300.472
300.485
300.499
300.512
300.525
300.538
300.551
300.563
300.576
300.589
300.602
300.614
300.627
300.639
300.651
300.663
300.676
300.688
300.699
300.711
300.723
300.734
300.746
300.757
300.768
300.779
300.79
300.801
300.811
300.822
300.832
300.842
300.852
300.862
300.872
300.881
300.003
300.008
300.014
300.021
300.027
300.034
300.041
300.048
300.055
300.063
300.07
300.079
300.087
300.095
300.104
300.113
300.123
300.132
300.142
300.152
300.162
300.172
300.183
300.194
300.204
300.216
300.227
300.238
300.25
300.261
300.273
300.285
300.297
300.309
300.321
300.334
300.346
300.359
300.371
300.384
300.396
300.409
300.421
300.434
300.446
300.459
300.472
300.484
300.497
300.509
300.522
300.534
300.546
300.558
300.571
300.583
300.595
300.607
300.618
300.63
300.642
300.653
300.665
300.676
300.687
300.698
300.709
300.72
300.731
300.741
300.752
300.762
300.772
300.782
300.792
300.802
300.812
300.821
300.831
300.84
300.849
300.003
300.008
300.014
300.02
300.027
300.033
300.04
300.047
300.054
300.062
300.069
300.077
300.085
300.094
300.103
300.111
300.12
300.13
300.139
300.149
300.159
300.169
300.179
300.19
300.2
300.211
300.222
300.233
300.245
300.256
300.267
300.279
300.291
300.302
300.314
300.326
300.338
300.35
300.362
300.374
300.386
300.399
300.411
300.423
300.435
300.447
300.459
300.471
300.483
300.495
300.507
300.519
300.531
300.543
300.554
300.566
300.578
300.589
300.6
300.612
300.623
300.634
300.645
300.656
300.666
300.677
300.687
300.698
300.708
300.718
300.728
300.738
300.748
300.758
300.767
300.776
300.786
300.795
300.804
300.813
300.822
300.003
300.008
300.014
300.02
300.026
300.033
300.039
300.046
300.053
300.061
300.068
300.076
300.084
300.092
300.101
300.11
300.119
300.128
300.137
300.147
300.156
300.166
300.176
300.187
300.197
300.208
300.218
300.229
300.24
300.251
300.262
300.274
300.285
300.296
300.308
300.32
300.331
300.343
300.355
300.366
300.378
300.39
300.402
300.414
300.425
300.437
300.449
300.461
300.472
300.484
300.495
300.507
300.518
300.53
300.541
300.552
300.563
300.574
300.585
300.596
300.607
300.618
300.628
300.639
300.649
300.659
300.669
300.679
300.689
300.699
300.709
300.718
300.728
300.737
300.746
300.755
300.764
300.773
300.782
300.79
300.799
300.003
300.008
300.014
300.02
300.026
300.032
300.039
300.046
300.053
300.06
300.067
300.075
300.083
300.091
300.1
300.108
300.117
300.126
300.135
300.145
300.154
300.164
300.174
300.184
300.194
300.205
300.215
300.226
300.236
300.247
300.258
300.269
300.281
300.292
300.303
300.314
300.326
300.337
300.349
300.36
300.372
300.383
300.395
300.406
300.418
300.429
300.441
300.452
300.463
300.475
300.486
300.497
300.508
300.519
300.53
300.541
300.552
300.563
300.574
300.584
300.595
300.605
300.615
300.625
300.635
300.645
300.655
300.665
300.675
300.684
300.693
300.703
300.712
300.721
300.73
300.739
300.747
300.756
300.764
300.773
300.781
300.003
300.008
300.014
300.02
300.026
300.032
300.038
300.045
300.052
300.059
300.067
300.074
300.082
300.09
300.099
300.107
300.116
300.125
300.134
300.143
300.153
300.162
300.172
300.182
300.192
300.202
300.213
300.223
300.234
300.245
300.255
300.266
300.277
300.288
300.3
300.311
300.322
300.333
300.345
300.356
300.367
300.378
300.39
300.401
300.412
300.424
300.435
300.446
300.457
300.468
300.48
300.491
300.501
300.512
300.523
300.534
300.544
300.555
300.565
300.576
300.586
300.596
300.606
300.616
300.626
300.636
300.646
300.655
300.665
300.674
300.683
300.692
300.701
300.71
300.719
300.727
300.736
300.744
300.752
300.76
300.769
300.003
300.008
300.014
300.019
300.025
300.032
300.038
300.045
300.052
300.059
300.066
300.074
300.082
300.09
300.098
300.107
300.115
300.124
300.133
300.142
300.152
300.161
300.171
300.181
300.191
300.201
300.212
300.222
300.233
300.243
300.254
300.265
300.276
300.287
300.298
300.309
300.32
300.331
300.342
300.354
300.365
300.376
300.387
300.398
300.41
300.421
300.432
300.443
300.454
300.465
300.476
300.487
300.498
300.509
300.519
300.53
300.54
300.551
300.561
300.572
300.582
300.592
300.602
300.612
300.621
300.631
300.641
300.65
300.659
300.669
300.678
300.687
300.695
300.704
300.713
300.721
300.73
300.738
300.746
300.754
300.762
303.029
303.158
303.235
303.308
303.371
303.423
303.458
303.498
303.538
303.575
303.606
303.641
303.676
303.71
303.744
303.777
303.808
303.836
303.865
303.895
303.924
303.954
303.984
304.013
304.042
304.071
304.099
304.127
304.155
304.182
304.209
304.236
304.262
304.289
304.315
304.34
304.366
304.392
304.416
304.442
304.467
304.49
304.516
304.543
304.57
304.595
304.618
304.644
304.67
304.695
304.72
304.742
304.767
304.792
304.817
304.843
304.869
304.894
304.92
304.944
304.965
304.988
305.011
305.036
305.06
305.085
305.109
305.134
305.158
305.182
305.206
305.229
305.252
305.276
305.299
305.322
305.345
305.368
305.389
305.414
305.441
305.466
305.489
305.511
305.532
305.552
305.576
305.602
305.625
305.646
305.666
305.688
305.713
305.735
305.758
305.783
305.807
305.827
305.851
305.872
305.892
305.914
305.933
305.954
305.977
306.002
306.023
306.04
306.06
306.077
306.097
306.118
306.14
306.162
306.181
306.196
306.214
306.234
306.254
306.27
306.283
306.299
306.315
306.331
306.346
306.357
306.369
306.382
306.394
306.406
306.416
306.425
306.433
306.44
306.445
306.449
306.452
306.453
306.452
306.45
306.446
306.44
306.432
306.422
306.41
306.395
306.378
306.357
306.333
306.305
306.27
306.233
306.195
306.152
306.102
306.046
305.985
305.882
305.787
305.669
305.515
302.927
303.041
303.129
303.205
303.27
303.326
303.372
303.416
303.458
303.497
303.534
303.57
303.606
303.641
303.676
303.709
303.742
303.772
303.803
303.833
303.863
303.894
303.924
303.954
303.983
304.012
304.041
304.069
304.098
304.125
304.153
304.18
304.207
304.234
304.26
304.286
304.313
304.338
304.364
304.389
304.415
304.44
304.466
304.492
304.518
304.544
304.569
304.594
304.62
304.645
304.67
304.694
304.719
304.744
304.769
304.795
304.821
304.846
304.872
304.896
304.918
304.942
304.965
304.99
305.014
305.039
305.064
305.088
305.113
305.137
305.161
305.185
305.208
305.232
305.255
305.278
305.302
305.325
305.348
305.372
305.398
305.423
305.446
305.469
305.491
305.512
305.535
305.56
305.584
305.606
305.626
305.649
305.673
305.696
305.719
305.744
305.767
305.789
305.812
305.834
305.854
305.876
305.896
305.918
305.941
305.964
305.985
306.004
306.024
306.042
306.062
306.083
306.105
306.126
306.146
306.162
306.181
306.2
306.219
306.236
306.25
306.266
306.282
306.298
306.313
306.325
306.337
306.35
306.362
306.374
306.384
306.393
306.402
306.408
306.414
306.418
306.421
306.422
306.422
306.419
306.415
306.41
306.402
306.392
306.379
306.364
306.347
306.326
306.302
306.273
306.239
306.201
306.163
306.118
306.068
306.01
305.944
305.844
305.744
305.62
305.451
302.845
302.944
303.031
303.106
303.173
303.231
303.283
303.33
303.375
303.417
303.456
303.495
303.532
303.569
303.604
303.639
303.672
303.704
303.736
303.768
303.799
303.83
303.86
303.89
303.92
303.95
303.979
304.008
304.037
304.065
304.093
304.121
304.148
304.176
304.202
304.229
304.256
304.282
304.308
304.334
304.36
304.385
304.411
304.438