/*--------------------------------*- C++ -*----------------------------------*\
| =========                 |                                                 |
| \\      /  F ield         | OpenFOAM: The Open Source CFD Toolbox           |
|  \\    /   O peration     | Version:  2106                                  |
|   \\  /    A nd           | Website:  www.openfoam.com                      |
|    \\/     M anipulation  |                                                 |
\*---------------------------------------------------------------------------*/
FoamFile
{
    version     2.0;
    format      ascii;
    arch        "LSB;label=32;scalar=64";
    class       volVectorField;
    location    "6.4";
    object      U;
}
// * * * * * * * * * * * * * * * * * * * * * * * * * * * * * * * * * * * * * //

dimensions      [0 1 -1 0 0 0 0];

internalField   nonuniform List<vector> 
12013
(
(0.100036 -1.01879e-05 0)
(0.100186 -1.88355e-05 0)
(0.100428 -2.68608e-05 0)
(0.100741 -3.42694e-05 0)
(0.101119 -4.12388e-05 0)
(0.101556 -4.78687e-05 0)
(0.102046 -5.42235e-05 0)
(0.102584 -6.03542e-05 0)
(0.103167 -6.63002e-05 0)
(0.103792 -7.20912e-05 0)
(0.104454 -7.77513e-05 0)
(0.105152 -8.33002e-05 0)
(0.105882 -8.87536e-05 0)
(0.106643 -9.41237e-05 0)
(0.107432 -9.94215e-05 0)
(0.108247 -0.000104655 0)
(0.109087 -0.00010983 0)
(0.10995 -0.000114952 0)
(0.110834 -0.000120024 0)
(0.111738 -0.000125049 0)
(0.11266 -0.000130028 0)
(0.113599 -0.000134961 0)
(0.114554 -0.000139849 0)
(0.115522 -0.000144688 0)
(0.116504 -0.000149479 0)
(0.117498 -0.000154216 0)
(0.118502 -0.000158899 0)
(0.119515 -0.000163521 0)
(0.120537 -0.000168079 0)
(0.121566 -0.000172567 0)
(0.122601 -0.00017698 0)
(0.123641 -0.000181309 0)
(0.124685 -0.000185548 0)
(0.125732 -0.000189688 0)
(0.126781 -0.00019372 0)
(0.127831 -0.000197634 0)
(0.12888 -0.000201419 0)
(0.129928 -0.000205063 0)
(0.130973 -0.000208551 0)
(0.132015 -0.000211871 0)
(0.133052 -0.000215004 0)
(0.134084 -0.000217932 0)
(0.135108 -0.000220636 0)
(0.136125 -0.000223093 0)
(0.137132 -0.000225278 0)
(0.138129 -0.000227162 0)
(0.139114 -0.000228715 0)
(0.140086 -0.000229899 0)
(0.141044 -0.000230674 0)
(0.141985 -0.000230995 0)
(0.142909 -0.000230806 0)
(0.143814 -0.000230048 0)
(0.144698 -0.00022865 0)
(0.145558 -0.000226529 0)
(0.146393 -0.000223588 0)
(0.147201 -0.000219716 0)
(0.147979 -0.000214776 0)
(0.148723 -0.00020861 0)
(0.149431 -0.000201024 0)
(0.150098 -0.000191784 0)
(0.150721 -0.000180606 0)
(0.151295 -0.000167137 0)
(0.151813 -0.000150938 0)
(0.152269 -0.000131454 0)
(0.152654 -0.000107978 0)
(0.152959 -7.95949e-05 0)
(0.153171 -4.51017e-05 0)
(0.153275 -2.89247e-06 0)
(0.153253 4.92238e-05 0)
(0.153079 0.00011438 0)
(0.152722 0.000197034 0)
(0.152138 0.000303742 0)
(0.151268 0.000444451 0)
(0.150029 0.000634751 0)
(0.148298 0.000899912 0)
(0.145892 0.00128235 0)
(0.14253 0.00185589 0)
(0.137741 0.0027569 0)
(0.130742 0.00427962 0)
(0.120451 0.00728834 0)
(0.108636 0.015843 0)
(0.100034 -3.11059e-05 0)
(0.100183 -5.77485e-05 0)
(0.100424 -8.23964e-05 0)
(0.100736 -0.000105134 0)
(0.101113 -0.000126523 0)
(0.101549 -0.000146868 0)
(0.102038 -0.000166368 0)
(0.102575 -0.000185178 0)
(0.103157 -0.00020342 0)
(0.103781 -0.000221186 0)
(0.104442 -0.000238549 0)
(0.105138 -0.000255569 0)
(0.105868 -0.000272296 0)
(0.106627 -0.000288767 0)
(0.107415 -0.000305015 0)
(0.10823 -0.000321063 0)
(0.109068 -0.000336933 0)
(0.10993 -0.000352638 0)
(0.110813 -0.00036819 0)
(0.111715 -0.000383596 0)
(0.112636 -0.00039886 0)
(0.113573 -0.000413983 0)
(0.114526 -0.000428964 0)
(0.115494 -0.000443798 0)
(0.116474 -0.00045848 0)
(0.117465 -0.000473 0)
(0.118468 -0.000487349 0)
(0.11948 -0.000501513 0)
(0.1205 -0.00051548 0)
(0.121527 -0.00052923 0)
(0.12256 -0.000542747 0)
(0.123598 -0.000556009 0)
(0.12464 -0.000568993 0)
(0.125685 -0.000581673 0)
(0.126732 -0.000594021 0)
(0.127779 -0.000606007 0)
(0.128826 -0.000617595 0)
(0.129871 -0.00062875 0)
(0.130914 -0.000639429 0)
(0.131954 -0.000649587 0)
(0.132989 -0.000659175 0)
(0.134018 -0.000668135 0)
(0.13504 -0.000676406 0)
(0.136054 -0.00068392 0)
(0.137058 -0.0006906 0)
(0.138053 -0.000696359 0)
(0.139035 -0.0007011 0)
(0.140004 -0.000704714 0)
(0.140959 -0.000707075 0)
(0.141898 -0.000708044 0)
(0.142819 -0.000707456 0)
(0.143721 -0.000705125 0)
(0.144602 -0.000700835 0)
(0.14546 -0.000694337 0)
(0.146292 -0.000685335 0)
(0.147098 -0.000673485 0)
(0.147873 -0.000658379 0)
(0.148615 -0.00063953 0)
(0.149321 -0.000616352 0)
(0.149988 -0.000588139 0)
(0.15061 -0.000554025 0)
(0.151183 -0.000512947 0)
(0.151702 -0.000463577 0)
(0.15216 -0.000404247 0)
(0.152549 -0.000332833 0)
(0.15286 -0.000246593 0)
(0.153081 -0.000141944 0)
(0.153198 -1.41226e-05 0)
(0.153195 0.00014332 0)
(0.153048 0.000339425 0)
(0.15273 0.00058698 0)
(0.152205 0.000904529 0)
(0.151423 0.00131968 0)
(0.150321 0.00187461 0)
(0.14881 0.00263556 0)
(0.146771 0.00370888 0)
(0.144042 0.00526807 0)
(0.140403 0.00759847 0)
(0.135583 0.0111728 0)
(0.129598 0.0166851 0)
(0.12471 0.0244951 0)
(0.100031 -5.28684e-05 0)
(0.100178 -9.9052e-05 0)
(0.100417 -0.000141503 0)
(0.100727 -0.000180652 0)
(0.101102 -0.00021747 0)
(0.101536 -0.000252486 0)
(0.102023 -0.000286041 0)
(0.102558 -0.000318407 0)
(0.103138 -0.00034979 0)
(0.10376 -0.000380352 0)
(0.104419 -0.000410219 0)
(0.105113 -0.000439495 0)
(0.10584 -0.000468263 0)
(0.106597 -0.00049659 0)
(0.107383 -0.00052453 0)
(0.108195 -0.000552126 0)
(0.109031 -0.000579412 0)
(0.10989 -0.000606414 0)
(0.11077 -0.00063315 0)
(0.11167 -0.000659633 0)
(0.112587 -0.000685869 0)
(0.113522 -0.000711861 0)
(0.114472 -0.000737607 0)
(0.115436 -0.000763098 0)
(0.116412 -0.000788324 0)
(0.117401 -0.000813272 0)
(0.1184 -0.000837921 0)
(0.119408 -0.000862252 0)
(0.120424 -0.000886239 0)
(0.121447 -0.000909853 0)
(0.122477 -0.000933062 0)
(0.123511 -0.000955831 0)
(0.124549 -0.000978118 0)
(0.125589 -0.00099988 0)
(0.126632 -0.00102107 0)
(0.127674 -0.00104163 0)
(0.128717 -0.00106151 0)
(0.129758 -0.00108064 0)
(0.130796 -0.00109895 0)
(0.13183 -0.00111636 0)
(0.13286 -0.00113278 0)
(0.133884 -0.00114813 0)
(0.134901 -0.00116229 0)
(0.13591 -0.00117515 0)
(0.136909 -0.00118657 0)
(0.137898 -0.0011964 0)
(0.138875 -0.00120449 0)
(0.139838 -0.00121064 0)
(0.140787 -0.00121465 0)
(0.141721 -0.00121626 0)
(0.142636 -0.0012152 0)
(0.143532 -0.00121116 0)
(0.144408 -0.00120377 0)
(0.14526 -0.0011926 0)
(0.146088 -0.00117715 0)
(0.146888 -0.00115685 0)
(0.147658 -0.001131 0)
(0.148396 -0.00109878 0)
(0.149098 -0.00105921 0)
(0.149762 -0.0010111 0)
(0.150382 -0.00095302 0)
(0.150954 -0.00088319 0)
(0.151474 -0.000799415 0)
(0.151935 -0.00069895 0)
(0.15233 -0.000578318 0)
(0.15265 -0.000433068 0)
(0.152886 -0.000257428 0)
(0.153026 -4.38194e-05 0)
(0.153054 0.000217868 0)
(0.152954 0.000541465 0)
(0.152703 0.000946165 0)
(0.152275 0.00145901 0)
(0.151638 0.0021188 0)
(0.150754 0.00298214 0)
(0.14958 0.00413269 0)
(0.148069 0.00569477 0)
(0.14619 0.00785128 0)
(0.143947 0.0108616 0)
(0.141452 0.0150638 0)
(0.139126 0.0207459 0)
(0.138218 0.0273768 0)
(0.100028 -7.52851e-05 0)
(0.100173 -0.000142628 0)
(0.100408 -0.000204111 0)
(0.100715 -0.000260841 0)
(0.101087 -0.000314172 0)
(0.101518 -0.000364875 0)
(0.102002 -0.000413453 0)
(0.102534 -0.000460301 0)
(0.103111 -0.000505721 0)
(0.103729 -0.000549945 0)
(0.104385 -0.000593159 0)
(0.105076 -0.000635512 0)
(0.105799 -0.000677125 0)
(0.106553 -0.000718096 0)
(0.107335 -0.000758503 0)
(0.108143 -0.000798408 0)
(0.108975 -0.000837861 0)
(0.10983 -0.000876897 0)
(0.110706 -0.000915546 0)
(0.111601 -0.000953823 0)
(0.112514 -0.00099174 0)
(0.113444 -0.0010293 0)
(0.114389 -0.0010665 0)
(0.115348 -0.00110332 0)
(0.11632 -0.00113976 0)
(0.117303 -0.00117579 0)
(0.118296 -0.00121138 0)
(0.119299 -0.00124651 0)
(0.12031 -0.00128113 0)
(0.121327 -0.00131521 0)
(0.12235 -0.0013487 0)
(0.123378 -0.00138155 0)
(0.12441 -0.00141369 0)
(0.125444 -0.00144507 0)
(0.12648 -0.00147561 0)
(0.127516 -0.00150525 0)
(0.128551 -0.00153388 0)
(0.129585 -0.00156143 0)
(0.130616 -0.00158778 0)
(0.131643 -0.00161283 0)
(0.132665 -0.00163646 0)
(0.133681 -0.00165851 0)
(0.13469 -0.00167885 0)
(0.135691 -0.0016973 0)
(0.136682 -0.00171367 0)
(0.137663 -0.00172775 0)
(0.138631 -0.00173931 0)
(0.139587 -0.00174807 0)
(0.140527 -0.00175373 0)
(0.141452 -0.00175594 0)
(0.142359 -0.00175432 0)
(0.143247 -0.0017484 0)
(0.144114 -0.00173768 0)
(0.144959 -0.00172154 0)
(0.145779 -0.00169928 0)
(0.146571 -0.00167009 0)
(0.147335 -0.00163298 0)
(0.148067 -0.00158682 0)
(0.148764 -0.00153023 0)
(0.149423 -0.00146157 0)
(0.15004 -0.00137884 0)
(0.150612 -0.00127962 0)
(0.151134 -0.0011609 0)
(0.1516 -0.00101897 0)
(0.152004 -0.000849172 0)
(0.152339 -0.000645598 0)
(0.152598 -0.000400696 0)
(0.152771 -0.000104704 0)
(0.152846 0.000255079 0)
(0.152812 0.000695543 0)
(0.152655 0.00123944 0)
(0.152361 0.00191761 0)
(0.151914 0.00277216 0)
(0.151304 0.00386084 0)
(0.150525 0.00526263 0)
(0.14959 0.00708366 0)
(0.148548 0.00946036 0)
(0.147509 0.0125501 0)
(0.146692 0.0164862 0)
(0.146477 0.0212254 0)
(0.147411 0.026115 0)
(0.100025 -9.83612e-05 0)
(0.100167 -0.000188391 0)
(0.100398 -0.000270175 0)
(0.100701 -0.000345719 0)
(0.101069 -0.000416711 0)
(0.101495 -0.000484178 0)
(0.101975 -0.000548801 0)
(0.102503 -0.00061111 0)
(0.103076 -0.000671506 0)
(0.103689 -0.000730301 0)
(0.10434 -0.000787744 0)
(0.105027 -0.000844034 0)
(0.105745 -0.000899331 0)
(0.106494 -0.000953766 0)
(0.107271 -0.00100744 0)
(0.108073 -0.00106045 0)
(0.1089 -0.00111284 0)
(0.109749 -0.00116467 0)
(0.110619 -0.00121598 0)
(0.111508 -0.00126679 0)
(0.112416 -0.00131711 0)
(0.113339 -0.00136695 0)
(0.114278 -0.0014163 0)
(0.11523 -0.00146515 0)
(0.116195 -0.00151347 0)
(0.117171 -0.00156124 0)
(0.118157 -0.00160842 0)
(0.119152 -0.00165498 0)
(0.120155 -0.00170085 0)
(0.121164 -0.001746 0)
(0.122179 -0.00179034 0)
(0.123199 -0.00183383 0)
(0.124222 -0.00187637 0)
(0.125247 -0.00191788 0)
(0.126274 -0.00195828 0)
(0.127301 -0.00199746 0)
(0.128327 -0.0020353 0)
(0.129351 -0.00207168 0)
(0.130372 -0.00210647 0)
(0.13139 -0.00213952 0)
(0.132402 -0.00217067 0)
(0.133407 -0.00219972 0)
(0.134406 -0.00222649 0)
(0.135396 -0.00225075 0)
(0.136377 -0.00227224 0)
(0.137346 -0.0022907 0)
(0.138304 -0.00230581 0)
(0.139249 -0.00231721 0)
(0.140178 -0.00232451 0)
(0.141092 -0.00232727 0)
(0.141988 -0.00232496 0)
(0.142866 -0.00231701 0)
(0.143722 -0.00230273 0)
(0.144556 -0.00228136 0)
(0.145366 -0.00225198 0)
(0.14615 -0.00221354 0)
(0.146905 -0.00216481 0)
(0.14763 -0.00210434 0)
(0.14832 -0.00203038 0)
(0.148975 -0.00194088 0)
(0.14959 -0.00183336 0)
(0.150162 -0.00170481 0)
(0.150687 -0.00155156 0)
(0.151161 -0.00136912 0)
(0.151579 -0.00115193 0)
(0.151936 -0.000893023 0)
(0.152226 -0.000583683 0)
(0.152442 -0.000212871 0)
(0.152579 0.000233376 0)
(0.152629 0.000772899 0)
(0.152588 0.00142886 0)
(0.152452 0.00223116 0)
(0.152221 0.00321829 0)
(0.151904 0.00443926 0)
(0.151522 0.00595507 0)
(0.151119 0.00783827 0)
(0.150773 0.010167 0)
(0.150612 0.0130065 0)
(0.150825 0.0163629 0)
(0.151659 0.0200868 0)
(0.153331 0.0237046 0)
(0.100022 -0.000122104 0)
(0.100161 -0.000236262 0)
(0.100387 -0.000339644 0)
(0.100685 -0.000435272 0)
(0.101047 -0.000525127 0)
(0.101469 -0.000610491 0)
(0.101943 -0.000692235 0)
(0.102466 -0.000771032 0)
(0.103033 -0.000847391 0)
(0.10364 -0.00092171 0)
(0.104286 -0.000994303 0)
(0.104966 -0.00106542 0)
(0.105678 -0.00113528 0)
(0.10642 -0.00120403 0)
(0.10719 -0.00127181 0)
(0.107986 -0.00133873 0)
(0.108806 -0.00140486 0)
(0.109648 -0.00147027 0)
(0.110511 -0.00153501 0)
(0.111392 -0.0015991 0)
(0.112291 -0.00166257 0)
(0.113207 -0.00172541 0)
(0.114137 -0.00178762 0)
(0.115081 -0.00184918 0)
(0.116037 -0.00191007 0)
(0.117004 -0.00197024 0)
(0.11798 -0.00202966 0)
(0.118966 -0.00208827 0)
(0.119959 -0.00214601 0)
(0.120959 -0.00220281 0)
(0.121963 -0.00225859 0)
(0.122972 -0.00231326 0)
(0.123985 -0.00236672 0)
(0.124999 -0.00241888 0)
(0.126014 -0.0024696 0)
(0.12703 -0.00251877 0)
(0.128044 -0.00256624 0)
(0.129056 -0.00261185 0)
(0.130065 -0.00265544 0)
(0.13107 -0.00269682 0)
(0.13207 -0.00273578 0)
(0.133063 -0.0027721 0)
(0.134048 -0.00280552 0)
(0.135025 -0.00283576 0)
(0.135993 -0.00286252 0)
(0.136949 -0.00288545 0)
(0.137893 -0.00290417 0)
(0.138824 -0.00291823 0)
(0.139741 -0.00292715 0)
(0.140641 -0.00293038 0)
(0.141524 -0.00292728 0)
(0.142388 -0.00291714 0)
(0.143233 -0.00289915 0)
(0.144055 -0.00287234 0)
(0.144853 -0.00283564 0)
(0.145626 -0.00278778 0)
(0.146372 -0.00272729 0)
(0.147088 -0.00265242 0)
(0.147772 -0.00256116 0)
(0.148422 -0.00245108 0)
(0.149035 -0.00231931 0)
(0.149609 -0.00216241 0)
(0.15014 -0.00197624 0)
(0.150626 -0.00175579 0)
(0.151062 -0.00149495 0)
(0.151447 -0.00118626 0)
(0.151775 -0.000820561 0)
(0.152045 -0.000386559 0)
(0.152255 0.000129612 0)
(0.152403 0.000744648 0)
(0.15249 0.0014794 0)
(0.152522 0.0023593 0)
(0.15251 0.0034148 0)
(0.152474 0.00468137 0)
(0.152449 0.00619834 0)
(0.152484 0.00800532 0)
(0.152658 0.0101342 0)
(0.153074 0.012593 0)
(0.153863 0.0153368 0)
(0.155159 0.0182228 0)
(0.157036 0.020958 0)
(0.100019 -0.000146524 0)
(0.100155 -0.000286174 0)
(0.100376 -0.000412463 0)
(0.100667 -0.000529464 0)
(0.101024 -0.000639426 0)
(0.101439 -0.000743867 0)
(0.101906 -0.000843856 0)
(0.102422 -0.000940214 0)
(0.102982 -0.00103357 0)
(0.103583 -0.0011244 0)
(0.104221 -0.00121311 0)
(0.104894 -0.00129999 0)
(0.105598 -0.0013853 0)
(0.106333 -0.00146925 0)
(0.107095 -0.00155199 0)
(0.107882 -0.00163366 0)
(0.108693 -0.00171435 0)
(0.109526 -0.00179415 0)
(0.11038 -0.0018731 0)
(0.111252 -0.00195124 0)
(0.112142 -0.0020286 0)
(0.113047 -0.00210518 0)
(0.113967 -0.00218097 0)
(0.1149 -0.00225594 0)
(0.115846 -0.00233007 0)
(0.116802 -0.00240331 0)
(0.117767 -0.00247561 0)
(0.118741 -0.0025469 0)
(0.119722 -0.0026171 0)
(0.12071 -0.00268613 0)
(0.121702 -0.0027539 0)
(0.122698 -0.00282029 0)
(0.123698 -0.00288519 0)
(0.124699 -0.00294846 0)
(0.1257 -0.00300997 0)
(0.126702 -0.00306955 0)
(0.127702 -0.00312704 0)
(0.1287 -0.00318225 0)
(0.129694 -0.00323497 0)
(0.130684 -0.00328497 0)
(0.131669 -0.00333201 0)
(0.132647 -0.00337581 0)
(0.133617 -0.00341607 0)
(0.134578 -0.00345246 0)
(0.13553 -0.00348459 0)
(0.136471 -0.00351208 0)
(0.137399 -0.00353444 0)
(0.138314 -0.00355117 0)
(0.139215 -0.00356168 0)
(0.1401 -0.00356532 0)
(0.140968 -0.00356136 0)
(0.141818 -0.00354896 0)
(0.142647 -0.00352716 0)
(0.143456 -0.00349486 0)
(0.144241 -0.00345082 0)
(0.145003 -0.00339358 0)
(0.145738 -0.00332148 0)
(0.146445 -0.00323256 0)
(0.147123 -0.00312456 0)
(0.147769 -0.00299481 0)
(0.148382 -0.00284018 0)
(0.148959 -0.00265697 0)
(0.149499 -0.00244081 0)
(0.15 -0.00218648 0)
(0.150459 -0.00188778 0)
(0.150876 -0.00153729 0)
(0.15125 -0.00112618 0)
(0.15158 -0.000643907 0)
(0.151869 -7.79882e-05 0)
(0.152119 0.000585925 0)
(0.152338 0.00136433 0)
(0.152534 0.00227629 0)
(0.152726 0.00334269 0)
(0.152937 0.00458519 0)
(0.153203 0.00602403 0)
(0.15357 0.00767409 0)
(0.154099 0.00953842 0)
(0.154863 0.0115981 0)
(0.155938 0.013798 0)
(0.157391 0.0160303 0)
(0.159236 0.0181254 0)
(0.100016 -0.000171644 0)
(0.100149 -0.000338082 0)
(0.100364 -0.000488587 0)
(0.100649 -0.000628254 0)
(0.100998 -0.000759591 0)
(0.101406 -0.000884325 0)
(0.101866 -0.00100372 0)
(0.102374 -0.00111875 0)
(0.102926 -0.00123017 0)
(0.103518 -0.00133855 0)
(0.104148 -0.00144436 0)
(0.104811 -0.00154797 0)
(0.105507 -0.00164968 0)
(0.106232 -0.00174973 0)
(0.106984 -0.00184831 0)
(0.107762 -0.00194559 0)
(0.108563 -0.00204168 0)
(0.109385 -0.00213667 0)
(0.110228 -0.00223063 0)
(0.111089 -0.00232361 0)
(0.111967 -0.00241562 0)
(0.112861 -0.00250667 0)
(0.113769 -0.00259675 0)
(0.114689 -0.00268583 0)
(0.115622 -0.00277388 0)
(0.116565 -0.00286085 0)
(0.117517 -0.00294666 0)
(0.118477 -0.00303123 0)
(0.119445 -0.00311449 0)
(0.120418 -0.00319632 0)
(0.121395 -0.00327661 0)
(0.122377 -0.00335523 0)
(0.123361 -0.00343204 0)
(0.124346 -0.00350689 0)
(0.125332 -0.00357961 0)
(0.126317 -0.00365001 0)
(0.127301 -0.00371788 0)
(0.128282 -0.00378301 0)
(0.12926 -0.00384515 0)
(0.130233 -0.00390404 0)
(0.1312 -0.00395939 0)
(0.13216 -0.00401087 0)
(0.133113 -0.00405813 0)
(0.134056 -0.00410078 0)
(0.13499 -0.00413839 0)
(0.135913 -0.00417049 0)
(0.136823 -0.00419653 0)
(0.137721 -0.00421594 0)
(0.138604 -0.00422804 0)
(0.139472 -0.0042321 0)
(0.140323 -0.00422727 0)
(0.141156 -0.00421261 0)
(0.14197 -0.00418705 0)
(0.142763 -0.00414937 0)
(0.143535 -0.0040982 0)
(0.144284 -0.00403193 0)
(0.145008 -0.00394877 0)
(0.145707 -0.00384661 0)
(0.146378 -0.00372305 0)
(0.147022 -0.00357529 0)
(0.147635 -0.00340011 0)
(0.148218 -0.00319375 0)
(0.148769 -0.00295186 0)
(0.149287 -0.00266936 0)
(0.149773 -0.00234036 0)
(0.150226 -0.00195806 0)
(0.150648 -0.00151458 0)
(0.151042 -0.00100092 0)
(0.151411 -0.000406875 0)
(0.151762 0.000278938 0)
(0.152104 0.00106784 0)
(0.15245 0.0019722 0)
(0.152817 0.00300403 0)
(0.153229 0.00417359 0)
(0.153716 0.00548732 0)
(0.154315 0.00694485 0)
(0.155067 0.00853497 0)
(0.156019 0.0102305 0)
(0.15721 0.0119831 0)
(0.158669 0.013719 0)
(0.16039 0.0153423 0)
(0.100013 -0.000197497 0)
(0.100143 -0.000391954 0)
(0.100352 -0.000567977 0)
(0.10063 -0.000731597 0)
(0.100972 -0.000885588 0)
(0.101371 -0.00103185 0)
(0.101822 -0.00117185 0)
(0.102321 -0.0013067 0)
(0.102864 -0.00143728 0)
(0.103446 -0.00156426 0)
(0.104066 -0.0016882 0)
(0.104719 -0.00180952 0)
(0.105404 -0.00192858 0)
(0.106118 -0.00204566 0)
(0.106859 -0.002161 0)
(0.107625 -0.00227476 0)
(0.108414 -0.0023871 0)
(0.109225 -0.00249812 0)
(0.110055 -0.00260789 0)
(0.110903 -0.00271648 0)
(0.111768 -0.0028239 0)
(0.112648 -0.00293016 0)
(0.113542 -0.00303525 0)
(0.114448 -0.00313914 0)
(0.115366 -0.00324178 0)
(0.116294 -0.00334311 0)
(0.117231 -0.00344305 0)
(0.118175 -0.00354151 0)
(0.119126 -0.00363838 0)
(0.120083 -0.00373355 0)
(0.121044 -0.00382688 0)
(0.122008 -0.00391822 0)
(0.122974 -0.0040074 0)
(0.123942 -0.00409425 0)
(0.12491 -0.00417857 0)
(0.125877 -0.00426014 0)
(0.126842 -0.00433873 0)
(0.127804 -0.00441408 0)
(0.128763 -0.00448591 0)
(0.129716 -0.00455392 0)
(0.130663 -0.00461777 0)
(0.131604 -0.00467709 0)
(0.132537 -0.00473149 0)
(0.13346 -0.00478052 0)
(0.134374 -0.00482368 0)
(0.135277 -0.00486046 0)
(0.136168 -0.00489024 0)
(0.137045 -0.00491236 0)
(0.137909 -0.0049261 0)
(0.138758 -0.00493062 0)
(0.13959 -0.00492502 0)
(0.140405 -0.00490825 0)
(0.141202 -0.00487916 0)
(0.14198 -0.00483645 0)
(0.142737 -0.00477864 0)
(0.143473 -0.00470407 0)
(0.144187 -0.00461084 0)
(0.144877 -0.0044968 0)
(0.145543 -0.00435951 0)
(0.146184 -0.0041962 0)
(0.146799 -0.00400369 0)
(0.147389 -0.0037784 0)
(0.147952 -0.00351623 0)
(0.14849 -0.00321257 0)
(0.149004 -0.00286222 0)
(0.149495 -0.00245936 0)
(0.149966 -0.00199756 0)
(0.150422 -0.00146983 0)
(0.150867 -0.000868686 0)
(0.15131 -0.000186276 0)
(0.151761 0.000585006 0)
(0.152232 0.00145087 0)
(0.15274 0.00241637 0)
(0.153303 0.00348378 0)
(0.153946 0.00465117 0)
(0.154694 0.00591057 0)
(0.155573 0.00724595 0)
(0.156609 0.0086313 0)
(0.157822 0.0100294 0)
(0.159219 0.0113923 0)
(0.16079 0.0126658 0)
(0.10001 -0.000224119 0)
(0.100137 -0.000447773 0)
(0.10034 -0.000650599 0)
(0.10061 -0.000839447 0)
(0.100944 -0.00101737 0)
(0.101334 -0.00118642 0)
(0.101776 -0.00134822 0)
(0.102264 -0.00150405 0)
(0.102796 -0.00165492 0)
(0.103368 -0.00180159 0)
(0.103976 -0.0019447 0)
(0.104618 -0.00208474 0)
(0.105291 -0.00222212 0)
(0.105992 -0.00235718 0)
(0.106721 -0.00249017 0)
(0.107473 -0.00262131 0)
(0.108249 -0.00275076 0)
(0.109045 -0.00287863 0)
(0.109861 -0.00300503 0)
(0.110694 -0.00313001 0)
(0.111544 -0.00325359 0)
(0.112409 -0.0033758 0)
(0.113287 -0.0034966 0)
(0.114177 -0.00361598 0)
(0.115078 -0.00373386 0)
(0.115989 -0.00385018 0)
(0.116908 -0.00396486 0)
(0.117835 -0.00407777 0)
(0.118768 -0.00418881 0)
(0.119706 -0.00429783 0)
(0.120648 -0.00440468 0)
(0.121593 -0.00450919 0)
(0.12254 -0.00461117 0)
(0.123487 -0.00471041 0)
(0.124435 -0.00480669 0)
(0.125381 -0.00489977 0)
(0.126326 -0.00498937 0)
(0.127267 -0.0050752 0)
(0.128204 -0.00515695 0)
(0.129135 -0.00523428 0)
(0.130061 -0.0053068 0)
(0.13098 -0.00537411 0)
(0.13189 -0.00543577 0)
(0.132792 -0.00549127 0)
(0.133684 -0.00554008 0)
(0.134565 -0.00558161 0)
(0.135434 -0.0056152 0)
(0.13629 -0.00564014 0)
(0.137133 -0.00565563 0)
(0.137961 -0.00566079 0)
(0.138774 -0.00565463 0)
(0.13957 -0.00563608 0)
(0.140349 -0.00560391 0)
(0.14111 -0.00555678 0)
(0.141852 -0.00549318 0)
(0.142575 -0.00541141 0)
(0.143277 -0.00530958 0)
(0.143959 -0.0051856 0)
(0.14462 -0.00503708 0)
(0.145259 -0.00486141 0)
(0.145877 -0.00465565 0)
(0.146475 -0.00441653 0)
(0.147052 -0.00414048 0)
(0.14761 -0.00382356 0)
(0.148152 -0.00346151 0)
(0.14868 -0.00304978 0)
(0.149197 -0.00258358 0)
(0.149708 -0.00205806 0)
(0.150221 -0.00146843 0)
(0.150742 -0.000810161 0)
(0.151282 -7.91823e-05 0)
(0.151852 0.000726779 0)
(0.152464 0.00160692 0)
(0.153133 0.00255881 0)
(0.153877 0.00357643 0)
(0.15471 0.00464921 0)
(0.155648 0.00576136 0)
(0.156705 0.00689148 0)
(0.157888 0.00801286 0)
(0.159197 0.00909497 0)
(0.160621 0.0101068 0)
(0.100007 -0.000251546 0)
(0.100131 -0.000505522 0)
(0.100328 -0.000736419 0)
(0.10059 -0.000951752 0)
(0.100915 -0.00115487 0)
(0.101295 -0.00134794 0)
(0.101726 -0.00153276 0)
(0.102204 -0.00171076 0)
(0.102725 -0.00188304 0)
(0.103284 -0.00205049 0)
(0.10388 -0.00221383 0)
(0.104508 -0.00237361 0)
(0.105168 -0.00253031 0)
(0.105855 -0.00268429 0)
(0.106569 -0.00283587 0)
(0.107307 -0.00298527 0)
(0.108067 -0.00313268 0)
(0.108848 -0.00327825 0)
(0.109647 -0.00342207 0)
(0.110464 -0.00356421 0)
(0.111297 -0.00370471 0)
(0.112144 -0.00384358 0)
(0.113005 -0.00398079 0)
(0.113877 -0.00411631 0)
(0.114759 -0.00425007 0)
(0.115651 -0.00438199 0)
(0.116551 -0.00451197 0)
(0.117457 -0.00463989 0)
(0.11837 -0.00476561 0)
(0.119287 -0.00488896 0)
(0.120208 -0.00500979 0)
(0.121132 -0.00512789 0)
(0.122057 -0.00524305 0)
(0.122983 -0.00535503 0)
(0.123908 -0.0054636 0)
(0.124831 -0.00556846 0)
(0.125753 -0.00566933 0)
(0.12667 -0.00576587 0)
(0.127584 -0.00585774 0)
(0.128492 -0.00594456 0)
(0.129394 -0.00602591 0)
(0.130289 -0.00610134 0)
(0.131175 -0.00617036 0)
(0.132053 -0.00623244 0)
(0.132921 -0.00628699 0)
(0.133779 -0.00633339 0)
(0.134624 -0.00637093 0)
(0.135458 -0.00639885 0)
(0.136278 -0.00641631 0)
(0.137085 -0.00642239 0)
(0.137876 -0.00641609 0)
(0.138653 -0.00639628 0)
(0.139413 -0.00636173 0)
(0.140157 -0.00631111 0)
(0.140884 -0.0062429 0)
(0.141593 -0.00615548 0)
(0.142284 -0.00604703 0)
(0.142958 -0.00591557 0)
(0.143613 -0.00575893 0)
(0.144251 -0.00557474 0)
(0.144872 -0.00536044 0)
(0.145477 -0.00511326 0)
(0.146067 -0.00483025 0)
(0.146645 -0.00450832 0)
(0.147212 -0.00414428 0)
(0.147773 -0.0037349 0)
(0.14833 -0.00327704 0)
(0.14889 -0.00276782 0)
(0.149457 -0.00220478 0)
(0.15004 -0.00158614 0)
(0.150647 -0.000910925 0)
(0.151287 -0.000179092 0)
(0.15197 0.000607339 0)
(0.152706 0.00144181 0)
(0.153506 0.00231703 0)
(0.154378 0.00322269 0)
(0.155331 0.00414544 0)
(0.156371 0.00506901 0)
(0.157499 0.00597492 0)
(0.158713 0.00684384 0)
(0.160002 0.00765782 0)
(0.100003 -0.000279803 0)
(0.100124 -0.000565184 0)
(0.100316 -0.000825391 0)
(0.10057 -0.00106844 0)
(0.100885 -0.001298 0)
(0.101255 -0.00151634 0)
(0.101675 -0.00172538 0)
(0.102141 -0.0019267 0)
(0.102649 -0.00212154 0)
(0.103195 -0.00231087 0)
(0.103776 -0.00249549 0)
(0.104391 -0.00267604 0)
(0.105035 -0.00285303 0)
(0.105707 -0.0030269 0)
(0.106405 -0.00319797 0)
(0.107127 -0.00336651 0)
(0.10787 -0.00353275 0)
(0.108633 -0.00369683 0)
(0.109415 -0.00385886 0)
(0.110213 -0.00401893 0)
(0.111027 -0.00417708 0)
(0.111855 -0.0043333 0)
(0.112696 -0.00448759 0)
(0.113548 -0.00463989 0)
(0.114409 -0.00479013 0)
(0.11528 -0.00493823 0)
(0.116158 -0.00508406 0)
(0.117043 -0.00522749 0)
(0.117933 -0.00536836 0)
(0.118828 -0.0055065 0)
(0.119726 -0.00564171 0)
(0.120626 -0.00577377 0)
(0.121527 -0.00590246 0)
(0.122428 -0.00602751 0)
(0.123329 -0.00614863 0)
(0.124228 -0.00626554 0)
(0.125124 -0.00637789 0)
(0.126016 -0.00648534 0)
(0.126904 -0.0065875 0)
(0.127787 -0.00668396 0)
(0.128663 -0.00677426 0)
(0.129532 -0.00685793 0)
(0.130393 -0.00693444 0)
(0.131245 -0.00700322 0)
(0.132088 -0.00706366 0)
(0.13292 -0.00711509 0)
(0.133741 -0.00715677 0)
(0.134551 -0.00718793 0)
(0.135347 -0.00720771 0)
(0.136131 -0.00721517 0)
(0.136901 -0.0072093 0)
(0.137656 -0.00718899 0)
(0.138397 -0.00715305 0)
(0.139123 -0.00710016 0)
(0.139834 -0.00702891 0)
(0.140529 -0.00693778 0)
(0.141209 -0.00682511 0)
(0.141874 -0.00668913 0)
(0.142524 -0.00652794 0)
(0.143161 -0.00633954 0)
(0.143784 -0.00612183 0)
(0.144395 -0.00587262 0)
(0.144997 -0.00558968 0)
(0.145591 -0.00527081 0)
(0.14618 -0.00491386 0)
(0.146767 -0.00451685 0)
(0.147357 -0.00407811 0)
(0.147954 -0.00359638 0)
(0.148563 -0.00307099 0)
(0.14919 -0.00250207 0)
(0.149842 -0.00189072 0)
(0.150526 -0.0012391 0)
(0.151249 -0.000550458 0)
(0.152019 0.000171205 0)
(0.152841 0.000917672 0)
(0.15372 0.0016786 0)
(0.154659 0.00244359 0)
(0.155661 0.0032009 0)
(0.156723 0.00393816 0)
(0.157842 0.00464322 0)
(0.159011 0.00530552 0)
(0.099999 -0.000308907 0)
(0.100118 -0.000626733 0)
(0.100304 -0.000917454 0)
(0.10055 -0.00118944 0)
(0.100855 -0.00144664 0)
(0.101214 -0.00169145 0)
(0.101622 -0.00192591 0)
(0.102074 -0.00215172 0)
(0.102568 -0.00237023 0)
(0.1031 -0.00258253 0)
(0.103667 -0.00278948 0)
(0.104265 -0.0029918 0)
(0.104893 -0.00319006 0)
(0.105549 -0.00338475 0)
(0.106229 -0.00357622 0)
(0.106932 -0.00376478 0)
(0.107657 -0.00395067 0)
(0.108401 -0.00413406 0)
(0.109163 -0.00431508 0)
(0.109942 -0.00449382 0)
(0.110735 -0.00467031 0)
(0.111542 -0.00484456 0)
(0.112361 -0.00501656 0)
(0.11319 -0.00518624 0)
(0.114029 -0.00535354 0)
(0.114877 -0.00551834 0)
(0.115732 -0.00568052 0)
(0.116593 -0.00583993 0)
(0.117458 -0.00599639 0)
(0.118328 -0.00614971 0)
(0.119201 -0.00629967 0)
(0.120075 -0.00644604 0)
(0.12095 -0.00658855 0)
(0.121825 -0.00672692 0)
(0.122699 -0.00686085 0)
(0.123571 -0.00699001 0)
(0.124441 -0.00711404 0)
(0.125306 -0.00723256 0)
(0.126166 -0.00734515 0)
(0.127021 -0.00745138 0)
(0.12787 -0.00755077 0)
(0.128712 -0.0076428 0)
(0.129545 -0.00772693 0)
(0.13037 -0.00780256 0)
(0.131186 -0.00786906 0)
(0.131992 -0.00792574 0)
(0.132786 -0.00797187 0)
(0.13357 -0.00800665 0)
(0.134342 -0.00802923 0)
(0.135102 -0.00803869 0)
(0.135849 -0.00803405 0)
(0.136583 -0.00801424 0)
(0.137304 -0.00797814 0)
(0.138012 -0.00792453 0)
(0.138706 -0.00785213 0)
(0.139387 -0.00775959 0)
(0.140055 -0.00764546 0)
(0.14071 -0.00750824 0)
(0.141354 -0.00734639 0)
(0.141987 -0.00715832 0)
(0.142611 -0.00694243 0)
(0.143227 -0.00669715 0)
(0.143837 -0.00642097 0)
(0.144443 -0.00611252 0)
(0.145048 -0.00577059 0)
(0.145655 -0.00539428 0)
(0.146268 -0.00498306 0)
(0.146891 -0.00453688 0)
(0.147527 -0.0040563 0)
(0.148182 -0.00354263 0)
(0.14886 -0.00299799 0)
(0.149566 -0.00242548 0)
(0.150305 -0.00182916 0)
(0.151081 -0.00121391 0)
(0.151899 -0.000585109 0)
(0.152761 5.1208e-05 0)
(0.153667 0.000686508 0)
(0.154618 0.00131098 0)
(0.15561 0.00191584 0)
(0.156641 0.00249345 0)
(0.157702 0.00303766 0)
(0.0999949 -0.000338857 0)
(0.100112 -0.000690129 0)
(0.100292 -0.00101252 0)
(0.100529 -0.0013146 0)
(0.100823 -0.00160063 0)
(0.101171 -0.00187309 0)
(0.101566 -0.00213412 0)
(0.102005 -0.00238555 0)
(0.102484 -0.00262883 0)
(0.103001 -0.00286515 0)
(0.103551 -0.00309546 0)
(0.104132 -0.00332054 0)
(0.104743 -0.00354103 0)
(0.10538 -0.00375744 0)
(0.106041 -0.00397019 0)
(0.106725 -0.00417962 0)
(0.107429 -0.00438597 0)
(0.108152 -0.00458944 0)
(0.108893 -0.00479018 0)
(0.10965 -0.00498828 0)
(0.11042 -0.00518378 0)
(0.111204 -0.00537669 0)
(0.111999 -0.00556699 0)
(0.112805 -0.00575462 0)
(0.113619 -0.00593949 0)
(0.114442 -0.00612149 0)
(0.115271 -0.00630047 0)
(0.116106 -0.00647627 0)
(0.116945 -0.0066487 0)
(0.117788 -0.00681755 0)
(0.118633 -0.00698258 0)
(0.11948 -0.00714353 0)
(0.120327 -0.00730011 0)
(0.121174 -0.00745204 0)
(0.122019 -0.00759897 0)
(0.122863 -0.00774055 0)
(0.123703 -0.0078764 0)
(0.124539 -0.00800612 0)
(0.12537 -0.00812927 0)
(0.126196 -0.00824539 0)
(0.127015 -0.00835398 0)
(0.127827 -0.00845451 0)
(0.128632 -0.00854641 0)
(0.129428 -0.00862909 0)
(0.130216 -0.0087019 0)
(0.130993 -0.00876415 0)
(0.131761 -0.00881511 0)
(0.132518 -0.00885402 0)
(0.133264 -0.00888004 0)
(0.133999 -0.0088923 0)
(0.134722 -0.00888987 0)
(0.135434 -0.00887179 0)
(0.136134 -0.00883702 0)
(0.136822 -0.00878449 0)
(0.137499 -0.0087131 0)
(0.138165 -0.00862169 0)
(0.13882 -0.00850909 0)
(0.139465 -0.00837412 0)
(0.140101 -0.00821558 0)
(0.14073 -0.00803235 0)
(0.141351 -0.00782332 0)
(0.141968 -0.0075875 0)
(0.142582 -0.00732405 0)
(0.143195 -0.0070323 0)
(0.14381 -0.00671183 0)
(0.144429 -0.00636257 0)
(0.145055 -0.00598479 0)
(0.145691 -0.00557926 0)
(0.146342 -0.00514726 0)
(0.147009 -0.00469068 0)
(0.147696 -0.00421206 0)
(0.148407 -0.00371459 0)
(0.149144 -0.00320217 0)
(0.14991 -0.00267928 0)
(0.150706 -0.00215099 0)
(0.151533 -0.00162263 0)
(0.152391 -0.00109957 0)
(0.153282 -0.000586402 0)
(0.154201 -8.86095e-05 0)
(0.155146 0.000388451 0)
(0.156111 0.0008407 0)
(0.0999904 -0.00036964 0)
(0.100105 -0.000755306 0)
(0.100279 -0.00111046 0)
(0.100508 -0.00144376 0)
(0.100791 -0.00175974 0)
(0.101127 -0.00206098 0)
(0.101508 -0.0023497 0)
(0.101933 -0.00262782 0)
(0.102396 -0.00289693 0)
(0.102896 -0.0031583 0)
(0.103429 -0.00341296 0)
(0.103992 -0.00366175 0)
(0.104583 -0.00390538 0)
(0.1052 -0.0041444 0)
(0.105841 -0.00437927 0)
(0.106503 -0.00461035 0)
(0.107186 -0.00483792 0)
(0.107887 -0.00506221 0)
(0.108604 -0.00528335 0)
(0.109337 -0.00550146 0)
(0.110083 -0.00571658 0)
(0.110842 -0.00592873 0)
(0.111611 -0.00613787 0)
(0.112391 -0.00634394 0)
(0.113179 -0.00654685 0)
(0.113974 -0.00674648 0)
(0.114776 -0.00694265 0)
(0.115582 -0.00713521 0)
(0.116393 -0.00732393 0)
(0.117207 -0.00750859 0)
(0.118023 -0.00768894 0)
(0.11884 -0.0078647 0)
(0.119657 -0.00803556 0)
(0.120474 -0.00820121 0)
(0.121289 -0.00836128 0)
(0.122101 -0.00851542 0)