/*--------------------------------*- C++ -*----------------------------------*\
| =========                 |                                                 |
| \\      /  F ield         | OpenFOAM: The Open Source CFD Toolbox           |
|  \\    /   O peration     | Version:  2106                                  |
|   \\  /    A nd           | Website:  www.openfoam.com                      |
|    \\/     M anipulation  |                                                 |
\*---------------------------------------------------------------------------*/
FoamFile
{
    version     2.0;
    format      ascii;
    arch        "LSB;label=32;scalar=64";
    class       surfaceScalarField;
    location    "0.99";
    object      phi;
}
// * * * * * * * * * * * * * * * * * * * * * * * * * * * * * * * * * * * * * //

dimensions      [1 0 -1 0 0 0 0];

oriented        oriented;

internalField   nonuniform List<scalar> 
23692
(
9.30945e-05
-1.48908e-08
9.31182e-05
-2.3607e-08
9.31438e-05
-2.55143e-08
9.31639e-05
-1.98314e-08
9.31715e-05
-7.37917e-09
9.31621e-05
9.736e-09
9.31341e-05
2.84667e-08
9.30889e-05
4.56682e-08
9.30305e-05
5.89498e-08
9.2964e-05
6.71631e-08
9.28943e-05
7.03787e-08
9.28256e-05
6.95253e-08
9.27607e-05
6.58906e-08
9.2701e-05
6.07288e-08
9.26471e-05
5.5004e-08
9.2599e-05
4.93238e-08
9.25564e-05
4.39922e-08
9.25188e-05
3.90729e-08
9.24859e-05
3.45189e-08
9.24574e-05
3.0222e-08
9.24332e-05
2.60768e-08
9.24132e-05
2.19867e-08
9.23974e-05
1.7895e-08
9.2386e-05
1.3762e-08
9.23788e-05
9.57451e-09
9.2376e-05
5.32767e-09
9.23777e-05
1.02936e-09
9.23838e-05
-3.30571e-09
9.23944e-05
-7.66352e-09
9.24096e-05
-1.20265e-08
9.24292e-05
-1.63772e-08
9.24533e-05
-2.06936e-08
9.24817e-05
-2.49549e-08
9.25145e-05
-2.91361e-08
9.25515e-05
-3.32132e-08
9.25925e-05
-3.71581e-08
9.26374e-05
-4.09405e-08
9.26861e-05
-4.45261e-08
9.27382e-05
-4.78765e-08
9.27935e-05
-5.09537e-08
9.28516e-05
-5.37131e-08
9.29122e-05
-5.61067e-08
9.29749e-05
-5.80842e-08
9.30392e-05
-5.95897e-08
9.31046e-05
-6.05635e-08
9.31704e-05
-6.0941e-08
9.3236e-05
-6.06536e-08
9.33006e-05
-5.96232e-08
9.33634e-05
-5.7768e-08
9.34235e-05
-5.49968e-08
9.34799e-05
-5.12055e-08
9.35314e-05
-4.62826e-08
9.35767e-05
-4.00987e-08
9.36145e-05
-3.25078e-08
9.36431e-05
-2.33411e-08
9.36609e-05
-1.24051e-08
9.36657e-05
5.30097e-10
9.36553e-05
1.57364e-08
9.36272e-05
3.35362e-08
9.35782e-05
5.43174e-08
9.3505e-05
7.85534e-08
9.34036e-05
1.06827e-07
9.32691e-05
1.39862e-07
9.30959e-05
1.78569e-07
9.28772e-05
2.24107e-07
9.26045e-05
2.77969e-07
9.22677e-05
3.42111e-07
9.18539e-05
4.19127e-07
9.13466e-05
5.12521e-07
9.07248e-05
6.27113e-07
8.99603e-05
7.69658e-07
8.90157e-05
9.49825e-07
8.78391e-05
1.18174e-06
8.63577e-05
1.48647e-06
8.44666e-05
1.89617e-06
8.20109e-05
2.46071e-06
7.87575e-05
3.25834e-06
7.43486e-05
4.41383e-06
6.82132e-05
6.14028e-06
5.93763e-05
8.84178e-06
1.3598e-05
4.5783e-05
9.96151e-05
-3.0655e-08
9.96405e-05
-4.89335e-08
9.96682e-05
-5.30053e-08
9.96899e-05
-4.1325e-08
9.96984e-05
-1.56292e-08
9.96888e-05
1.9737e-08
9.96592e-05
5.85012e-08
9.96113e-05
9.41363e-08
9.95491e-05
1.21696e-07
9.94782e-05
1.38783e-07
9.94038e-05
1.45537e-07
9.93304e-05
1.43858e-07
9.92608e-05
1.36416e-07
9.91969e-05
1.25795e-07
9.91391e-05
1.13993e-07
9.90875e-05
1.02277e-07
9.90417e-05
9.12632e-08
9.90012e-05
8.11093e-08
9.89658e-05
7.17029e-08
9.8935e-05
6.28297e-08
9.89088e-05
5.42665e-08
9.88871e-05
4.58288e-08
9.88699e-05
3.73873e-08
9.88572e-05
2.88687e-08
9.88491e-05
2.02368e-08
9.88457e-05
1.14904e-08
9.8847e-05
2.6406e-09
9.8853e-05
-6.28597e-09
9.88637e-05
-1.5255e-08
9.88793e-05
-2.42315e-08
9.88995e-05
-3.31751e-08
9.89245e-05
-4.2048e-08
9.89541e-05
-5.08017e-08
9.89882e-05
-5.93891e-08
9.90268e-05
-6.77584e-08
9.90696e-05
-7.58502e-08
9.91166e-05
-8.36032e-08
9.91674e-05
-9.09453e-08
9.92218e-05
-9.78013e-08
9.92796e-05
-1.04089e-07
9.93404e-05
-1.09718e-07
9.94037e-05
-1.1459e-07
9.94691e-05
-1.18599e-07
9.95362e-05
-1.21631e-07
9.96043e-05
-1.23565e-07
9.96729e-05
-1.24267e-07
9.97411e-05
-1.23591e-07
9.98082e-05
-1.21385e-07
9.98733e-05
-1.17475e-07
9.99355e-05
-1.11674e-07
9.99935e-05
-1.03774e-07
0.000100046
-9.35409e-08
0.000100093
-8.07132e-08
0.000100131
-6.49909e-08
0.000100159
-4.60325e-08
0.000100176
-2.34387e-08
0.000100179
3.25632e-09
0.000100166
3.46013e-08
0.000100134
7.12476e-08
0.00010008
1.1398e-07
0.0001
1.6375e-07
9.98912e-05
2.21727e-07
9.97475e-05
2.89356e-07
9.95634e-05
3.68447e-07
9.93319e-05
4.6129e-07
9.90448e-05
5.70819e-07
9.86917e-05
7.00839e-07
9.82602e-05
8.56358e-07
9.77343e-05
1.04406e-06
9.7094e-05
1.273e-06
9.63135e-05
1.55568e-06
9.53593e-05
1.90954e-06
9.41872e-05
2.35941e-06
9.27381e-05
2.94097e-06
9.09337e-05
3.70603e-06
8.86701e-05
4.72967e-06
8.58153e-05
6.11846e-06
8.22179e-05
8.01654e-06
7.77577e-05
1.06057e-05
7.25683e-05
1.40364e-05
1.7898e-05
6.82735e-05
0.000106592
-4.73225e-08
0.00010662
-7.61269e-08
0.00010665
-8.265e-08
0.000106673
-6.47909e-08
0.000106683
-2.51736e-08
0.000106674
2.95305e-08
0.000106643
8.96028e-08
0.000106593
1.44957e-07
0.000106527
1.87892e-07
0.000106452
2.14663e-07
0.000106373
2.25432e-07
0.000106295
2.23114e-07
0.00010622
2.11813e-07
0.000106152
1.95523e-07
0.00010609
1.77349e-07
0.000106034
1.59267e-07
0.000105985
1.42238e-07
0.000105941
1.26522e-07
0.000105903
1.11962e-07
0.000105869
9.82296e-08
0.000105841
8.49826e-08
0.000105817
7.19387e-08
0.000105798
5.89011e-08
0.000105784
4.57536e-08
0.000105774
3.24431e-08
0.00010577
1.89633e-08
0.00010577
5.33542e-09
0.000105775
-8.40008e-09
0.000105786
-2.21937e-08
0.000105801
-3.59885e-08
0.000105821
-4.97284e-08
0.000105846
-6.33445e-08
0.000105876
-7.67703e-08
0.000105911
-8.99292e-08
0.00010595
-1.0274e-07
0.000105994
-1.15114e-07
0.000106042
-1.26954e-07
0.000106094
-1.3815e-07
0.000106149
-1.48587e-07
0.000106208
-1.58134e-07
0.00010627
-1.66654e-07
0.000106335
-1.73995e-07
0.000106402
-1.79996e-07
0.00010647
-1.84481e-07
0.000106539
-1.87259e-07
0.000106609
-1.88128e-07
0.000106678
-1.86865e-07
0.000106745
-1.83233e-07
0.00010681
-1.76968e-07
0.000106872
-1.67783e-07
0.00010693
-1.55358e-07
0.000106982
-1.39339e-07
0.000107026
-1.19325e-07
0.000107062
-9.48618e-08
0.000107088
-6.54286e-08
0.000107101
-3.04232e-08
0.000107099
1.08573e-08
0.000107081
5.92369e-08
0.000107042
1.1569e-07
0.000106981
1.81386e-07
0.000106893
2.57738e-07
0.000106775
3.46471e-07
0.000106621
4.49704e-07
0.000106425
5.70069e-07
0.000106182
7.1087e-07
0.000105882
8.76295e-07
0.000105517
1.07171e-06
0.000105076
1.30406e-06
0.000104543
1.58248e-06
0.000103903
1.91904e-06
0.000103135
2.32996e-06
0.000102213
2.83715e-06
0.000101108
3.47045e-06
9.97845e-05
4.27049e-06
9.82042e-05
5.29209e-06
9.63325e-05
6.60717e-06
9.41529e-05
8.30379e-06
9.17014e-05
1.04736e-05
8.91427e-05
1.31701e-05
8.69125e-05
1.62721e-05
1.90975e-05
8.57185e-05
0.000114059
-6.49571e-08
0.000114088
-1.05298e-07
0.00011412
-1.14692e-07
0.000114146
-9.06218e-08
0.000114158
-3.65408e-08
0.000114149
3.84449e-08
0.000114118
1.21055e-07
0.000114066
1.97433e-07
0.000113998
2.56965e-07
0.000113919
2.94404e-07
0.000113836
3.09875e-07
0.000113752
3.07292e-07
0.000113673
2.92247e-07
0.0001136
2.70208e-07
0.000113533
2.45449e-07
0.000113473
2.20705e-07
0.00011342
1.97345e-07
0.000113372
1.75745e-07
0.00011333
1.55716e-07
0.000113294
1.36829e-07
0.000113263
1.18622e-07
0.000113236
1.00716e-07
0.000113215
8.28409e-08
0.000113199
6.48367e-08
0.000113187
4.66326e-08
0.000113181
2.82147e-08
0.00011318
9.61531e-09
0.000113185
-9.11424e-09
0.000113194
-2.79034e-08
0.000113208
-4.66778e-08
0.000113228
-6.53565e-08
0.000113253
-8.38495e-08
0.000113282
-1.02061e-07
0.000113317
-1.19889e-07
0.000113356
-1.37221e-07
0.000113399
-1.53936e-07
0.000113447
-1.69899e-07
0.000113499
-1.84961e-07
0.000113554
-1.98961e-07
0.000113613
-2.11724e-07
0.000113675
-2.23061e-07
0.000113739
-2.32764e-07
0.000113806
-2.40612e-07
0.000113873
-2.46367e-07
0.000113942
-2.4977e-07
0.00011401
-2.50542e-07
0.000114078
-2.48385e-07
0.000114144
-2.42973e-07
0.000114207
-2.33952e-07
0.000114266
-2.2093e-07
0.000114321
-2.0348e-07
0.000114369
-1.81122e-07
0.000114409
-1.53319e-07
0.00011444
-1.19463e-07
0.00011446
-7.88594e-08
0.000114467
-3.07061e-08
0.000114458
2.59251e-08
0.000114432
9.21144e-08
0.000114385
1.69138e-07
0.000114315
2.58518e-07
0.000114217
3.6208e-07
0.000114088
4.82033e-07
0.000113923
6.21068e-07
0.000113717
7.82492e-07
0.000113464
9.70403e-07
0.000113157
1.18992e-06
0.000112788
1.44748e-06
0.000112347
1.75128e-06
0.000111824
2.11176e-06
0.000111208
2.54241e-06
0.000110483
3.06061e-06
0.000109638
3.68886e-06
0.000108659
4.45612e-06
0.000107536
5.39914e-06
0.000106271
6.563e-06
0.000104885
7.99942e-06
0.000103436
9.759e-06
0.000102045
1.18704e-05
0.000100928
1.4294e-05
0.000100379
1.68265e-05
1.89423e-05
0.00010054
0.000122048
-8.36399e-08
0.000122079
-1.36577e-07
0.000122114
-1.49416e-07
0.000122143
-1.19287e-07
0.000122157
-5.04226e-08
0.00012215
4.56234e-08
0.00012212
1.51895e-07
0.000122067
2.50628e-07
0.000121997
3.28089e-07
0.000121915
3.77387e-07
0.000121827
3.98489e-07
0.000121739
3.96268e-07
0.000121655
3.77806e-07
0.000121577
3.50091e-07
0.000121505
3.18632e-07
0.00012144
2.87e-07
0.000121382
2.57006e-07
0.000121331
2.29199e-07
0.000121285
2.03379e-07
0.000121245
1.79027e-07
0.000121211
1.55577e-07
0.000121182
1.32544e-07
0.000121158
1.09592e-07
0.000121139
8.65152e-08
0.000121125
6.32183e-08
0.000121117
3.9687e-08
0.000121115
1.59549e-08
0.000121117
-7.90909e-09
0.000121125
-3.18214e-08
0.000121138
-5.56842e-08
0.000121156
-7.93898e-08
0.00012118
-1.02828e-07
0.000121208
-1.25875e-07
0.000121241
-1.48398e-07
0.000121279
-1.70252e-07
0.000121322
-1.91282e-07
0.000121368
-2.11313e-07
0.000121419
-2.30158e-07
0.000121473
-2.47608e-07
0.00012153
-2.63442e-07
0.000121591
-2.77413e-07
0.000121653
-2.89263e-07
0.000121717
-2.98705e-07
0.000121782
-3.05438e-07
0.000121848
-3.09133e-07
0.000121913
-3.09438e-07
0.000121977
-3.05972e-07
0.000122039
-2.98326e-07
0.000122098
-2.86053e-07
0.000122152
-2.68661e-07
0.000122201
-2.45614e-07
0.000122243
-2.16311e-07
0.000122277
-1.80087e-07
0.0001223
-1.36185e-07
0.000122312
-8.37503e-08
0.00012231
-2.1797e-08
0.000122293
5.08027e-08
0.000122256
1.35356e-07
0.000122199
2.33397e-07
0.000122118
3.46743e-07
0.00012201
4.77547e-07
0.00012187
6.2839e-07
0.000121696
8.02375e-07
0.000121482
1.00326e-06
0.000121224
1.23564e-06
0.000120916
1.50511e-06
0.000120552
1.81858e-06
0.000120125
2.1846e-06
0.00011963
2.61374e-06
0.00011906
3.11908e-06
0.000118411
3.71679e-06
0.00011768
4.42662e-06
0.000116871
5.27227e-06
0.000115995
6.28119e-06
0.000115082
7.48308e-06
0.000114182
8.90569e-06
0.000113382
1.05653e-05
0.000112811
1.24482e-05
0.000112632
1.4479e-05
0.000112992
1.6473e-05
1.80909e-05
0.00011385
0.000130596
-1.03445e-07
0.00013063
-1.70129e-07
0.000130668
-1.87141e-07
0.0001307
-1.51342e-07
0.000130718
-6.76314e-08
0.000130714
5.00169e-08
0.000130685
1.80938e-07
0.000130633
3.03327e-07
0.000130562
4.00183e-07
0.000130478
4.62755e-07
0.000130386
4.90705e-07
0.000130294
4.89757e-07
0.000130205
4.68456e-07
0.000130121
4.35337e-07
0.000130044
3.97202e-07
0.000129974
3.58523e-07
0.000129911
3.21629e-07
0.000129855
2.8729e-07
0.000129806
2.55342e-07
0.000129762
2.25205e-07
0.000129724
1.96206e-07
0.000129691
1.67783e-07
0.000129665
1.39515e-07
0.000129643
1.11157e-07
0.000129627
8.2593e-08
0.000129617
5.37941e-08
0.000129611
2.48033e-08
0.000129612
-4.3019e-09
0.000129618
-3.34137e-08
0.000129629
-6.24145e-08
0.000129645
-9.1179e-08
0.000129666
-1.19564e-07
0.000129693
-1.47419e-07
0.000129724
-1.74582e-07
0.00012976
-2.00875e-07
0.0001298
-2.26105e-07
0.000129845
-2.50057e-07
0.000129893
-2.72502e-07
0.000129944
-2.93186e-07
0.000129999
-3.11835e-07
0.000130056
-3.28153e-07
0.000130114
-3.4182e-07
0.000130175
-3.52492e-07
0.000130236
-3.598e-07
0.000130297
-3.63345e-07
0.000130357
-3.62704e-07
0.000130415
-3.57419e-07
0.000130471
-3.46995e-07
0.000130523
-3.30896e-07
0.00013057
-3.08537e-07
0.000130611
-2.79276e-07
0.000130644
-2.42407e-07
0.000130668
-1.9714e-07
0.000130682
-1.42593e-07
0.000130684
-7.77647e-08
0.000130671
-1.52058e-09
0.000130642
8.74295e-08
0.000130594
1.90572e-07
0.000130525
3.09637e-07
0.000130433
4.46645e-07
0.000130314
6.03968e-07
0.000130166
7.84399e-07
0.000129984
9.91251e-07
0.000129766
1.22846e-06
0.000129509
1.50073e-06
0.000129208
1.81366e-06
0.00012886
2.17398e-06
0.000128462
2.5897e-06
0.000128013
3.07035e-06
0.000127512
3.62721e-06
0.000126963
4.27338e-06
0.000126373
5.0238e-06
0.000125758
5.8948e-06
0.000125143
6.90301e-06
0.00012457
8.06302e-06
0.0001241
9.38291e-06
0.000123816
1.08566e-05
0.000123819
1.24515e-05
0.000124214
1.40917e-05
0.000125053
1.56404e-05
1.68958e-05
0.000126255
0.000139744
-1.24443e-07
0.00013978
-2.0611e-07
0.000139821
-2.28225e-07
0.000139857
-1.8739e-07
0.000139879
-8.90733e-08
0.000139879
5.04322e-08
0.000139854
2.06788e-07
0.000139804
3.54097e-07
0.000139733
4.71907e-07
0.000139648
5.49409e-07
0.000139554
5.85733e-07
0.000139457
5.87301e-07
0.000139363
5.64035e-07
0.000139274
5.26014e-07
0.000139191
4.81383e-07
0.000139116
4.35593e-07
0.000139048
3.91578e-07
0.000138987
3.50399e-07
0.000138933
3.11981e-07
0.000138885
2.75712e-07
0.000138843
2.40855e-07
0.000138807
2.06754e-07
0.000138777
1.72934e-07
0.000138753
1.39101e-07
0.000138734
1.05104e-07
0.00013872
7.09144e-08
0.000138713
3.65735e-08
0.00013871
2.17446e-09
0.000138714
-3.21641e-08
0.000138722
-6.6304e-08
0.000138736
-1.00087e-07
0.000138755
-1.3335e-07
0.000138779
-1.65913e-07
0.000138807
-1.97579e-07
0.00013884
-2.28137e-07
0.000138877
-2.57357e-07
0.000138918
-2.84986e-07
0.000138962
-3.10746e-07
0.00013901
-3.3434e-07
0.00013906
-3.55443e-07
0.000139112
-3.73706e-07
0.000139166
-3.88753e-07
0.00013922
-4.00178e-07
0.000139275
-4.0755e-07
0.000139329
-4.10405e-07
0.000139382
-4.08247e-07
0.000139433
-4.00545e-07
0.00013948
-3.86727e-07
0.000139523
-3.66174e-07
0.00013956
-3.38216e-07
0.000139591
-3.02122e-07
0.000139613
-2.57087e-07
0.000139626
-2.02224e-07
0.000139628
-1.36543e-07
0.000139617
-5.89344e-08
0.000139592
3.18444e-08
0.00013955
1.37194e-07
0.00013949
2.58718e-07
0.000139409
3.98254e-07
0.000139306
5.57919e-07
0.000139178
7.40156e-07
0.000139022
9.47796e-07
0.000138838
1.18412e-06
0.000138621
1.45295e-06
0.000138371
1.75872e-06
0.000138086
2.10655e-06
0.000137766
2.50238e-06
0.000137411
2.95297e-06
0.000137023
3.466e-06
0.000136608
4.04996e-06
0.000136175
4.71404e-06
0.000135739
5.46767e-06
0.000135322
6.31977e-06
0.000134955
7.27741e-06
0.000134682
8.34359e-06
0.000134559
9.51385e-06
0.000134651
1.07713e-05
0.00013503
1.20802e-05
0.00013575
1.3379e-05
0.000136821
1.45765e-05
1.55577e-05
0.000138167
0.000149532
-1.46708e-07
0.00014957
-2.44685e-07
0.000149615
-2.73021e-07
0.000149656
-2.28058e-07
0.000149684
-1.15717e-07
0.000149689
4.55794e-08
0.000149668
2.27925e-07
0.000149622
4.01324e-07
0.000149553
5.41739e-07
0.000149467
6.36046e-07
0.000149372
6.82585e-07
0.000149272
6.88249e-07
0.000149173
6.64213e-07
0.000149079
6.22051e-07
0.000148991
5.71295e-07
0.00014891
5.18455e-07
0.000148837
4.67157e-07
0.000148771
4.18851e-07
0.000148712
3.73616e-07
0.000148659
3.30869e-07
0.000148613
2.89825e-07
0.000148573
2.49767e-07
0.00014854
2.10158e-07
0.000148512
1.70657e-07
0.00014849
1.31091e-07
0.000148473
9.14155e-08
0.000148462
5.1673e-08
0.000148457
1.1964e-08
0.000148457
-2.75753e-08
0.000148463
-6.67829e-08
0.000148473
-1.05483e-07
0.000148489
-1.43483e-07
0.000148509
-1.80569e-07
0.000148534
-2.16517e-07
0.000148563
-2.51077e-07
0.000148595
-2.83983e-07
0.000148632
-3.14939e-07
0.000148671
-3.43628e-07
0.000148713
-3.69703e-07
0.000148758
-3.92792e-07
0.000148804
-4.12493e-07
0.00014885
-4.28375e-07
0.000148898
-4.39978e-07
0.000148944
-4.46809e-07
0.00014899
-4.48344e-07
0.000149033
-4.44021e-07
0.000149074
-4.33244e-07
0.000149111
-4.15371e-07
0.000149142
-3.89716e-07
0.000149168
-3.55534e-07
0.000149186
-3.12022e-07
0.000149196
-2.58303e-07
0.000149195
-1.93414e-07
0.000149183
-1.16296e-07
0.000149159
-2.57712e-08
0.00014912
7.94557e-08
0.000149065
2.00834e-07
0.000148992
3.40003e-07
0.0001489
4.98809e-07
0.000148787
6.79338e-07
0.000148652
8.83952e-07
0.000148493
1.11532e-06
0.000148309
1.37648e-06
0.0001481
1.67083e-06
0.000147865
2.0022e-06
0.000147605
2.37486e-06
0.000147323
2.79351e-06
0.000147021
3.26321e-06
0.000146706
3.78933e-06
0.000146387
4.3773e-06
0.000146077
5.03232e-06
0.000145795
5.75878e-06
0.000145563
6.55952e-06
0.000145414
7.43465e-06
0.000145386
8.37996e-06
0.000145523
9.3848e-06
0.000145873
1.04296e-05
0.000146478
1.14832e-05
0.000147364
1.25008e-05
0.000148523
1.34253e-05
1.41925e-05
0.000149895
0.000160005
-1.70294e-07
0.000160047
-2.85994e-07
0.000160096
-3.21846e-07
0.000160142
-2.73935e-07
0.000160175
-1.48478e-07
0.000160187
3.41913e-08
0.000160173
2.4281e-07
0.000160132
4.43344e-07
0.000160067
6.08043e-07
0.000159983
7.2122e-07
0.000159886
7.80101e-07
0.000159784
7.91781e-07
0.000159682
7.68482e-07
0.000159582
7.23221e-07
0.000159488
6.66921e-07
0.000159402
6.07231e-07
0.000159323
5.48584e-07
0.000159251
4.92908e-07
0.000159187
4.40534e-07
0.00015913
3.9096e-07
0.000159079
3.43403e-07
0.000159036
2.97104e-07
0.000158998
2.51478e-07
0.000158966
2.06141e-07
0.000158941
1.60892e-07
0.000158921
1.1567e-07
0.000158906
7.05163e-08
0.000158898
2.55364e-08
0.000158894
-1.91169e-08
0.000158896
-6.32647e-08
0.000158903
-1.06706e-07
0.000158914
-1.4922e-07
0.00015893
-1.90567e-07
0.00015895
-2.30486e-07
0.000158974
-2.68693e-07
0.000159002
-3.04884e-07
0.000159033
-3.38724e-07
0.000159066
-3.69851e-07
0.000159101
-3.97877e-07
0.000159138
-4.22382e-07
0.000159176
-4.42917e-07
0.000159215
-4.58999e-07
0.000159253
-4.70116e-07
0.00015929
-4.75723e-07
0.000159325
-4.75242e-07
0.000159357
-4.68057e-07
0.000159386
-4.53516e-07
0.00015941
-4.30922e-07
0.000159428
-3.99534e-07
0.00015944
-3.58557e-07
0.000159444
-3.07137e-07
0.000159439
-2.44353e-07
0.000159424
-1.69203e-07
0.000159397
-8.05981e-08
0.000159358
2.26495e-08
0.000159304
1.41829e-07
0.000159236
2.78373e-07
0.000159151
4.33861e-07
0.000159049
6.1004e-07
0.000158929
8.08837e-07
0.00015879
1.03238e-06
0.000158631
1.28301e-06
0.000158454
1.56329e-06
0.000158258
1.876e-06
0.000158045
2.22411e-06
0.000157818
2.61078e-06
0.000157582
3.03925e-06
0.000157341
3.51273e-06
0.000157105
4.03425e-06
0.000156885
4.60639e-06
0.000156696
5.23092e-06
0.000156555
5.90835e-06
0.000156486
6.63728e-06
0.000156516
7.41362e-06
0.000156675
8.22967e-06
0.000156995
9.07313e-06
0.000157507
9.92602e-06
0.000158235
1.07641e-05
0.000159187
1.1557e-05
0.000160351
1.22699e-05
1.28677e-05
0.000161684
0.000171213
-1.95248e-07
0.000171257
-3.30145e-07
0.00017131
-3.74966e-07
0.000171362
-3.25513e-07
0.000171403
-1.88163e-07
0.000171422
1.51421e-08
0.000171416
2.50034e-07
0.000171381
4.78567e-07
0.000171321
6.69204e-07
0.00017124
8.0343e-07
0.000171145
8.77011e-07
0.000171041
8.96905e-07
0.000170935
8.76167e-07
0.000170831
8.29117e-07
0.000170732
7.68079e-07
0.000170639
7.01912e-07
0.000170555
6.35958e-07
0.000170477
5.72749e-07
0.000170408
5.12957e-07
0.000170346
4.56241e-07
0.000170291
4.01865e-07
0.000170242
3.49062e-07
0.000170201
2.97213e-07
0.000170165
2.45896e-07
0.000170135
1.94884e-07
0.000170112
1.44097e-07
0.000170093
9.35712e-08
0.000170081
4.34183e-08
0.000170073
-6.20136e-09
0.000170071
-5.50865e-08
0.000170073
-1.03018e-07
0.00017008
-1.49747e-07
0.00017009
-1.95002e-07
0.000170105
-2.38492e-07
0.000170123
-2.799e-07
0.000170144
-3.1888e-07
0.000170168
-3.55062e-07
0.000170193
-3.88047e-07
0.000170221
-4.17401e-07
0.000170249
-4.42665e-07
0.000170277
-4.63344e-07
0.000170305
-4.78914e-07
0.000170333
-4.88819e-07
0.000170358
-4.92468e-07
0.000170381
-4.89241e-07
0.0001704
-4.7848e-07
0.000170415
-4.59492e-07
0.000170425
-4.31546e-07
0.000170428
-3.93866e-07
0.000170425
-3.45629e-07
0.000170413
-2.85964e-07
0.000170392
-2.13936e-07
0.000170361
-1.28546e-07
0.000170319
-2.87261e-08
0.000170264
8.66613e-08
0.000170197
2.18841e-07
0.000170116
3.69147e-07
0.000170021
5.39014e-07
0.000169911
7.29982e-07
0.000169786
9.43705e-07
0.000169646
1.18195e-06
0.000169492
1.44657e-06
0.000169326
1.73954e-06
0.000169149
2.06284e-06
0.000168964
2.41849e-06
0.000168776
2.80843e-06
0.000168591
3.23445e-06
0.000168415
3.698e-06
0.000168259
4.20008e-06
0.000168134
4.74095e-06
0.000168055
5.31987e-06
0.000168038
5.93475e-06
0.000168103
6.58175e-06
0.000168271
7.25488e-06
0.000168565
7.94555e-06
0.000169005
8.64226e-06
0.00016961
9.33038e-06
0.00017039
9.99232e-06
0.000171348
1.06082e-05
0.00017247
1.11573e-05
1.16206e-05
0.000173726
0.000183205
-2.21592e-07
0.000183252
-3.77196e-07
0.00018331
-4.32529e-07
0.000183368
-3.83114e-07
0.000183416
-2.35331e-07
0.000183444
-1.24224e-08
0.000183446
2.48467e-07
0.00018342
5.05654e-07
0.000183367
7.2378e-07
0.00018329
8.81252e-07
0.000183196
9.72022e-07
0.000183092
1.00255e-06
0.000182984
9.86429e-07
0.000182876
9.39152e-07
0.000182772
8.74408e-07
0.000182674
8.02325e-07
0.000182583
7.2926e-07
0.0001825
6.58463e-07
0.000182425
5.91053e-07
0.000182358
5.2694e-07
0.000182298
4.65489e-07
0.000182245
4.05961e-07
0.000182199
3.47723e-07
0.000182159
2.9033e-07
0.000182125
2.33525e-07
0.000182096
1.77211e-07
0.000182074
1.21416e-07
0.000182056
6.62508e-08
0.000182044
1.18867e-08
0.000182037
-4.14578e-08
0.000182033
-9.35471e-08
0.000182034
-1.44104e-07
0.000182039
-1.9283e-07
0.000182047
-2.39403e-07
0.000182058
-2.8347e-07
0.000182071
-3.24656e-07
0.000182086
-3.62553e-07
0.000182103
-3.96726e-07
0.000182121
-4.26707e-07
0.000182138
-4.51999e-07
0.000182156
-4.72072e-07
0.000182172
-4.86366e-07
0.000182186
-4.94292e-07
0.000182198
-4.9523e-07
0.000182207
-4.88527e-07
0.000182211
-4.73503e-07
0.000182211
-4.49443e-07
0.000182205
-4.15599e-07
0.000182192
-3.71189e-07
0.000182172
-3.15393e-07
0.000182143
-2.47352e-07
0.000182105
-1.6616e-07
0.000182058
-7.0867e-08
0.000182
3.95182e-08
0.000181931
1.66031e-07
0.000181851
3.09774e-07
0.000181758
4.71904e-07
0.000181654
6.53623e-07
0.000181538
8.56186e-07
0.000181412
1.08088e-06
0.000181275
1.329e-06
0.00018113
1.60187e-06
0.00018098
1.90075e-06
0.000180826
2.22681e-06
0.000180674
2.58111e-06
0.000180529
2.96444e-06
0.000180396
3.37727e-06
0.000180285
3.81964e-06
0.000180204
4.29096e-06
0.000180166
4.78987e-06
0.000180182
5.31403e-06
0.000180267
5.85997e-06
0.000180436
6.42283e-06
0.000180705
6.99625e-06
0.000181088
7.57225e-06
0.000181599
8.1412e-06
0.000182247
8.69203e-06
0.000183036
9.21253e-06
0.000183964
9.69001e-06
0.000185019
1.01123e-05
1.04691e-05
0.00018618
0.000196037
-2.49318e-07
0.000196087
-4.27133e-07
0.000196149
-4.94563e-07
0.000196214
-4.46842e-07
0.000196269
-2.90236e-07
0.000196306
-4.8963e-08
0.000196318
2.37399e-07
0.000196301
5.23663e-07
0.000196255
7.70647e-07
0.000196185
9.53473e-07
0.000196094
1.06393e-06
0.000195991
1.10759e-06
0.000195881
1.09833e-06
0.00019577
1.05259e-06
0.000195661
9.85383e-07
0.000195558
9.08145e-07
0.000195461
8.28339e-07
0.000195373
7.50048e-07
0.000195292
6.74947e-07
0.00019522
6.03276e-07
0.000195154
5.34578e-07
0.000195096
4.6818e-07
0.000195045
4.03461e-07
0.000195
3.3996e-07
0.000194961
2.77401e-07
0.000194928
2.15669e-07
0.0001949
1.5478e-07
0.000194877
9.48439e-08
0.000194859
3.60395e-08
0.000194846
-2.14077e-08
0.000194836
-7.72253e-08
0.00019483
-1.31137e-07
0.000194827
-1.82806e-07
0.000194827
-2.31885e-07
0.00019483
-2.77988e-07
0.000194834
-3.2071e-07
0.000194839
-3.59615e-07
0.000194845
-3.94239e-07
0.000194851
-4.24082e-07
0.000194857
-4.4862e-07
0.000194861
-4.67297e-07
0.000194864
-4.79531e-07
0.000194864
-4.84712e-07
0.000194861
-4.82201e-07
0.000194853
-4.71338e-07
0.000194841
-4.51434e-07
0.000194824
-4.21776e-07
0.0001948
-3.8163e-07
0.00019477
-3.30229e-07
0.000194732
-2.66792e-07
0.000194686
-1.90509e-07
0.000194631
-1.00543e-07
0.000194567
3.95821e-09
0.000194494
1.23858e-07
0.000194411
2.6005e-07
0.000194318
4.13445e-07
0.000194216
5.8496e-07
0.000194106
7.75511e-07
0.000193987
9.85996e-07
0.000193862
1.21728e-06
0.000193732
1.47017e-06
0.0001936
1.74538e-06
0.000193468
2.04351e-06
0.000193341
2.36494e-06
0.000193224
2.70986e-06
0.000193121
3.07811e-06
0.000193041
3.46913e-06
0.000192989
3.8819e-06
0.000192977
4.31477e-06
0.000193012
4.76544e-06
0.000193106
5.23079e-06
0.00019327
5.70683e-06
0.000193515
6.18867e-06
0.000193852
6.67046e-06
0.000194289
7.14547e-06
0.000194835
7.60623e-06
0.000195493
8.0447e-06
0.000196263
8.45267e-06
0.000197141
8.82218e-06
0.000198118
9.14615e-06
9.41907e-06
0.000199178
0.000209768
-2.78395e-07
0.000209821
-4.79871e-07
0.000209887
-5.60936e-07
0.000209957
-5.16559e-07
0.000210021
-3.52771e-07
0.000210067
-9.44889e-08
0.000210089
2.16638e-07
0.000210081
5.32159e-07
0.000210044
8.09124e-07
0.00020998
1.01921e-06
0.000209893
1.15172e-06
0.000209792
1.21102e-06
0.000209681
1.21089e-06
0.000209568
1.1686e-06
0.000209455
1.10035e-06
0.000209347
1.01892e-06
0.000209245
9.32941e-07
0.000209151
8.47431e-07
0.000209065
7.64727e-07
0.000208987
6.85486e-07
0.000208916
6.09491e-07
0.000208852
5.36186e-07
0.000208795
4.64991e-07
0.000208745
3.95447e-07
0.0002087
3.27264e-07
0.000208661
2.60313e-07
0.000208627
1.94597e-07
0.000208598
1.30226e-07
0.000208574
6.73741e-08
0.000208553
6.28064e-09
0.000208535
-5.27428e-08
0.000208521
-1.09448e-07
0.000208509
-1.63438e-07
0.0002085
-2.14364e-07
0.000208492
-2.61795e-07
0.000208485
-3.05313e-07
0.000208479
-3.44455e-07
0.000208472
-3.78737e-07
0.000208465
-4.07637e-07
0.000208457
-4.30616e-07
0.000208447
-4.471e-07
0.000208433
-4.56504e-07
0.000208417
-4.58206e-07
0.000208397
-4.51575e-07
0.000208372
-4.35955e-07
0.000208342
-4.10676e-07
0.000208306
-3.75051e-07
0.000208264
-3.28383e-07
0.000208215
-2.69959e-07
0.000208159
-1.99058e-07
0.000208095
-1.14972e-07
0.000208023
-1.69635e-08
0.000207943
9.56727e-08
0.000207854
2.23645e-07
0.000207759
3.67652e-07
0.000207656
5.2837e-07
0.000207546
7.06433e-07
0.000207431
9.0243e-07
0.000207312
1.11688e-06
0.000207191
1.35021e-06
0.000207071
1.60273e-06
0.000206953
1.8746e-06
0.000206843
2.1658e-06
0.000206744
2.47607e-06
0.000206661
2.80488e-06
0.0002066
3.15135e-06
0.000206566
3.51422e-06
0.000206568
3.8918e-06
0.000206613
4.28188e-06
0.000206709
4.68174e-06
0.000206863
5.08806e-06
0.000207084
5.49697e-06
0.000207381
5.90405e-06
0.000207758
6.30438e-06
0.000208222
6.69265e-06
0.000208777
7.06328e-06
0.000209422
7.41068e-06
0.000210156
7.72944e-06
0.000210975
8.01463e-06
0.00021187
8.26217e-06
8.46924e-06
0.000212831
0.00022446
-3.08753e-07
0.000224516
-5.35247e-07
0.000224586
-6.3138e-07
0.000224662
-5.91872e-07
0.000224732
-4.22472e-07
0.000224787
-1.48538e-07
0.000224818
1.86524e-07
0.00022482
5.31256e-07
0.000224792
8.39041e-07
0.000224735
1.078e-06
0.000224653
1.23469e-06
0.000224554
1.31196e-06
0.000224444
1.32324e-06
0.000224329
1.28634e-06
0.000224213
1.21862e-06
0.000224101
1.13413e-06
0.000223994
1.04276e-06
0.000223895
9.50511e-07
0.000223803
8.60485e-07
0.000223718
7.7384e-07
0.000223642
6.90661e-07
0.000223572
6.10559e-07
0.000223509
5.33024e-07
0.000223452
4.57623e-07
0.000223401
3.84063e-07
0.000223355
3.12204e-07
0.000223314
2.4204e-07
0.000223277
1.73668e-07
0.000223244
1.07275e-07
0.000223214
4.31026e-08
0.000223188
-1.85503e-08
0.000223164
-7.73682e-08
0.000223141
-1.32982e-07
0.000223121
-1.84992e-07
0.000223101
-2.32982e-07
0.000223081
-2.76498e-07
0.000223061
-3.1506e-07
0.00022304
-3.48177e-07
0.000223018
-3.75317e-07
0.000222993
-3.95935e-07
0.000222966
-4.09462e-07
0.000222935
-4.15313e-07
0.000222901
-4.12885e-07
0.000222862
-4.01565e-07
0.000222818
-3.80728e-07
0.000222769
-3.49746e-07
0.000222713
-3.07984e-07
0.000222651
-2.5481e-07
0.000222583
-1.89597e-07
0.000222508
-1.11685e-07
0.000222426
-2.05826e-08
0.000222336
8.43876e-08
0.000222241
2.03733e-07
0.000222139
3.37976e-07
0.000222032
4.87584e-07
0.00022192
6.52969e-07
0.000221804
8.34469e-07
0.000221687
1.03234e-06
0.00022157
1.24671e-06
0.000221455
1.47762e-06
0.000221346
1.72491e-06
0.000221245
1.98828e-06
0.000221157
2.26721e-06
0.000221085
2.56092e-06
0.000221034
2.86838e-06
0.00022101
3.18826e-06
0.000221018
3.51889e-06
0.000221064
3.85824e-06
0.000221154
4.20393e-06
0.000221296
4.5532e-06
0.000221493
4.90293e-06
0.000221753
5.24969e-06
0.000222079
5.58977e-06
0.000222477
5.91924e-06
0.000222948
6.23411e-06
0.000223493
6.53038e-06
0.000224111
6.80424e-06
0.0002248
7.05219e-06
0.000225555
7.27124e-06
0.00022637
7.45908e-06
7.61436e-06
0.000227237
0.000240181
-3.40293e-07
0.000240239
-5.93025e-07
0.000240314
-7.05481e-07
0.000240394
-6.72193e-07
0.000240471
-4.98573e-07
0.000240534
-2.10254e-07
0.000240573
1.47873e-07
0.000240584
5.21597e-07
0.000240564
8.6074e-07
0.000240514
1.12983e-06
0.000240438
1.31252e-06
0.000240342
1.40985e-06
0.000240233
1.43464e-06
0.000240117
1.40509e-06
0.000239999
1.33953e-06
0.000239883
1.25329e-06
0.000239771
1.15748e-06
0.000239666
1.0592e-06
0.000239568
9.6236e-07
0.000239478
8.68683e-07
0.000239395
7.78626e-07
0.000239318
6.92008e-07
0.000239248
6.08433e-07
0.000239184
5.27509e-07
0.000239125
4.48955e-07
0.000239071
3.72627e-07
0.000239021
2.98511e-07
0.000238975
2.267e-07
0.000238932
1.57375e-07
0.000238892
9.07826e-08
0.000238855
2.72238e-08
0.000238819
-3.29663e-08
0.000238784
-8.94112e-08
0.00023875
-1.41704e-07
0.000238715
-1.89414e-07
0.000238681
-2.32087e-07
0.000238645
-2.6923e-07
0.000238607
-3.00357e-07
0.000238567
-3.24934e-07
0.000238525
-3.42434e-07
0.000238479
-3.523e-07
0.000238429
-3.53971e-07
0.000238374
-3.46879e-07
0.000238315
-3.3045e-07
0.00023825
-3.04112e-07
0.00023818
-2.67311e-07
0.000238104
-2.19477e-07
0.000238022
-1.60071e-07
0.000237933
-8.85765e-08
0.000237839
-4.50508e-09
0.000237739
9.2578e-08
0.000237633
2.03099e-07
0.000237523
3.27415e-07
0.000237408
4.65826e-07
0.000237291
6.18559e-07
0.000237171
7.85758e-07
0.000237052
9.67469e-07
0.000236934
1.16363e-06
0.00023682
1.37404e-06
0.000236713
1.59836e-06
0.000236616
1.83609e-06
0.000236531
2.08655e-06
0.000236463
2.34884e-06
0.000236416
2.62188e-06
0.000236394
2.90431e-06
0.000236401
3.19457e-06
0.000236442
3.49082e-06
0.000236523
3.79099e-06
0.000236648
4.09276e-06
0.000236821