/*--------------------------------*- C++ -*----------------------------------*\
| =========                 |                                                 |
| \\      /  F ield         | OpenFOAM: The Open Source CFD Toolbox           |
|  \\    /   O peration     | Version:  2106                                  |
|   \\  /    A nd           | Website:  www.openfoam.com                      |
|    \\/     M anipulation  |                                                 |
\*---------------------------------------------------------------------------*/
FoamFile
{
    version     2.0;
    format      ascii;
    arch        "LSB;label=32;scalar=64";
    class       volScalarField;
    location    "0.99";
    object      T;
}
// * * * * * * * * * * * * * * * * * * * * * * * * * * * * * * * * * * * * * //

dimensions      [0 0 0 1 0 0 0];

internalField   nonuniform List<scalar> 
12013
(
300
300.001
300.001
300.002
300.002
300.003
300.004
300.005
300.006
300.007
300.008
300.01
300.012
300.014
300.016
300.018
300.021
300.024
300.028
300.032
300.036
300.041
300.046
300.052
300.058
300.064
300.072
300.08
300.088
300.097
300.107
300.117
300.129
300.141
300.153
300.167
300.181
300.196
300.212
300.229
300.247
300.266
300.286
300.306
300.328
300.351
300.375
300.4
300.426
300.453
300.481
300.51
300.541
300.573
300.606
300.64
300.676
300.712
300.751
300.791
300.832
300.875
300.919
300.965
301.013
301.063
301.114
301.168
301.224
301.283
301.344
301.407
301.475
301.545
301.62
301.7
301.786
301.879
301.982
302.1
302.24
300
300.001
300.001
300.002
300.002
300.003
300.004
300.005
300.006
300.007
300.008
300.01
300.012
300.014
300.016
300.018
300.021
300.024
300.028
300.032
300.036
300.041
300.046
300.052
300.058
300.064
300.072
300.079
300.088
300.097
300.107
300.117
300.129
300.14
300.153
300.167
300.181
300.196
300.212
300.229
300.247
300.266
300.286
300.306
300.328
300.351
300.375
300.399
300.425
300.452
300.481
300.51
300.541
300.572
300.605
300.64
300.675
300.712
300.75
300.79
300.831
300.874
300.919
300.965
301.012
301.062
301.113
301.167
301.223
301.281
301.342
301.405
301.472
301.542
301.616
301.695
301.78
301.87
301.969
302.078
302.199
300
300.001
300.001
300.002
300.002
300.003
300.004
300.005
300.006
300.007
300.008
300.01
300.012
300.014
300.016
300.018
300.021
300.024
300.028
300.032
300.036
300.041
300.046
300.052
300.058
300.064
300.072
300.079
300.088
300.097
300.107
300.117
300.128
300.14
300.153
300.167
300.181
300.196
300.212
300.229
300.247
300.266
300.285
300.306
300.328
300.351
300.374
300.399
300.425
300.452
300.48
300.51
300.54
300.572
300.605
300.639
300.674
300.711
300.749
300.789
300.83
300.873
300.917
300.963
301.01
301.06
301.111
301.164
301.22
301.278
301.338
301.401
301.467
301.536
301.608
301.685
301.766
301.853
301.945
302.043
302.145
300
300.001
300.001
300.002
300.002
300.003
300.004
300.005
300.006
300.007
300.008
300.01
300.012
300.014
300.016
300.018
300.021
300.024
300.028
300.032
300.036
300.041
300.046
300.051
300.058
300.064
300.072
300.079
300.088
300.097
300.107
300.117
300.128
300.14
300.153
300.166
300.181
300.196
300.212
300.229
300.247
300.265
300.285
300.306
300.327
300.35
300.374
300.399
300.424
300.451
300.479
300.509
300.539
300.571
300.604
300.638
300.673
300.71
300.748
300.787
300.828
300.871
300.915
300.96
301.008
301.057
301.107
301.16
301.215
301.272
301.331
301.393
301.458
301.525
301.596
301.669
301.747
301.828
301.912
301.999
302.087
300
300.001
300.001
300.002
300.002
300.003
300.004
300.005
300.006
300.007
300.008
300.01
300.012
300.014
300.016
300.018
300.021
300.024
300.028
300.032
300.036
300.041
300.046
300.051
300.058
300.064
300.071
300.079
300.088
300.097
300.107
300.117
300.128
300.14
300.153
300.166
300.18
300.196
300.212
300.228
300.246
300.265
300.285
300.305
300.327
300.349
300.373
300.398
300.424
300.45
300.478
300.508
300.538
300.569
300.602
300.636
300.671
300.708
300.746
300.785
300.825
300.868
300.911
300.956
301.003
301.052
301.102
301.154
301.208
301.264
301.322
301.382
301.445
301.51
301.578
301.648
301.721
301.796
301.873
301.951
302.028
300
300.001
300.001
300.002
300.002
300.003
300.004
300.005
300.006
300.007
300.008
300.01
300.012
300.014
300.016
300.018
300.021
300.024
300.028
300.032
300.036
300.041
300.046
300.051
300.057
300.064
300.071
300.079
300.088
300.097
300.106
300.117
300.128
300.14
300.152
300.166
300.18
300.195
300.211
300.228
300.246
300.264
300.284
300.304
300.326
300.348
300.372
300.397
300.422
300.449
300.477
300.506
300.536
300.567
300.6
300.634
300.669
300.705
300.742
300.781
300.822
300.863
300.906
300.951
300.997
301.045
301.094
301.146
301.198
301.253
301.31
301.368
301.429
301.491
301.556
301.622
301.69
301.759
301.829
301.899
301.968
300
300.001
300.001
300.002
300.002
300.003
300.004
300.005
300.006
300.007
300.008
300.01
300.012
300.014
300.016
300.018
300.021
300.024
300.028
300.032
300.036
300.04
300.046
300.051
300.057
300.064
300.071
300.079
300.087
300.096
300.106
300.116
300.128
300.139
300.152
300.165
300.18
300.195
300.21
300.227
300.245
300.263
300.283
300.303
300.325
300.347
300.371
300.395
300.421
300.447
300.475
300.504
300.534
300.565
300.597
300.63
300.665
300.701
300.738
300.777
300.817
300.858
300.9
300.944
300.99
301.036
301.085
301.135
301.186
301.239
301.294
301.35
301.408
301.468
301.529
301.591
301.654
301.718
301.782
301.845
301.907
300
300.001
300.001
300.002
300.002
300.003
300.004
300.005
300.006
300.007
300.008
300.01
300.012
300.014
300.016
300.018
300.021
300.024
300.028
300.031
300.036
300.04
300.045
300.051
300.057
300.064
300.071
300.079
300.087
300.096
300.106
300.116
300.127
300.139
300.151
300.165
300.179
300.194
300.21
300.226
300.244
300.262
300.282
300.302
300.323
300.346
300.369
300.393
300.419
300.445
300.472
300.501
300.531
300.561
300.593
300.627
300.661
300.696
300.733
300.771
300.81
300.851
300.892
300.935
300.98
301.026
301.073
301.121
301.171
301.222
301.275
301.329
301.384
301.44
301.498
301.556
301.614
301.673
301.731
301.789
301.845
300
300.001
300.001
300.002
300.002
300.003
300.004
300.005
300.006
300.007
300.008
300.01
300.012
300.013
300.016
300.018
300.021
300.024
300.028
300.031
300.036
300.04
300.045
300.051
300.057
300.064
300.071
300.078
300.087
300.096
300.105
300.116
300.127
300.138
300.151
300.164
300.178
300.193
300.209
300.225
300.243
300.261
300.28
300.3
300.322
300.344
300.367
300.391
300.416
300.442
300.469
300.498
300.527
300.557
300.589
300.622
300.655
300.69
300.726
300.764
300.802
300.842
300.883
300.925
300.968
301.012
301.058
301.105
301.153
301.202
301.253
301.304
301.356
301.409
301.463
301.517
301.571
301.625
301.678
301.731
301.782
300
300.001
300.001
300.002
300.002
300.003
300.004
300.005
300.006
300.007
300.008
300.01
300.011
300.013
300.016
300.018
300.021
300.024
300.027
300.031
300.035
300.04
300.045
300.051
300.057
300.063
300.07
300.078
300.086
300.095
300.105
300.115
300.126
300.138
300.15
300.163
300.177
300.192
300.207
300.224
300.241
300.259
300.278
300.298
300.319
300.341
300.364
300.388
300.413
300.439
300.465
300.493
300.522
300.552
300.583
300.615
300.649
300.683
300.718
300.755
300.792
300.831
300.871
300.912
300.954
300.997
301.041
301.086
301.132
301.179
301.227
301.275
301.324
301.374
301.424
301.474
301.524
301.574
301.623
301.671
301.718
300
300.001
300.001
300.002
300.002
300.003
300.004
300.005
300.006
300.007
300.008
300.01
300.011
300.013
300.016
300.018
300.021
300.024
300.027
300.031
300.035
300.04
300.045
300.05
300.056
300.063
300.07
300.078
300.086
300.095
300.104
300.114
300.125
300.137
300.149
300.162
300.176
300.19
300.206
300.222
300.239
300.257
300.276
300.296
300.317
300.338
300.361
300.384
300.409
300.434
300.461
300.488
300.517
300.546
300.577
300.608
300.641
300.674
300.709
300.744
300.781
300.818
300.857
300.896
300.937
300.978
301.021
301.064
301.108
301.152
301.197
301.243
301.289
301.336
301.382
301.429
301.475
301.521
301.566
301.61
301.653
300
300.001
300.001
300.002
300.002
300.003
300.004
300.005
300.006
300.007
300.008
300.01
300.011
300.013
300.015
300.018
300.021
300.024
300.027
300.031
300.035
300.04
300.045
300.05
300.056
300.062
300.069
300.077
300.085
300.094
300.103
300.113
300.124
300.136
300.148
300.161
300.174
300.189
300.204
300.22
300.237
300.255
300.273
300.293
300.313
300.335
300.357
300.38
300.404
300.429
300.455
300.482
300.51
300.539
300.569
300.599
300.631
300.664
300.697
300.732
300.767
300.803
300.841
300.879
300.918
300.957
300.998
301.039
301.08
301.122
301.165
301.208
301.251
301.294
301.337
301.38
301.423
301.465
301.507
301.547
301.587
300
300.001
300.001
300.002
300.002
300.003
300.004
300.005
300.006
300.007
300.008
300.01
300.011
300.013
300.015
300.018
300.02
300.024
300.027
300.031
300.035
300.039
300.044
300.05
300.055
300.062
300.069
300.076
300.084
300.093
300.102
300.112
300.123
300.134
300.146
300.159
300.173
300.187
300.202
300.218
300.234
300.252
300.27
300.289
300.309
300.33
300.352
300.375
300.399
300.423
300.448
300.475
300.502
300.53
300.559
300.589
300.62
300.651
300.684
300.717
300.751
300.786
300.822
300.858
300.896
300.933
300.972
301.01
301.05
301.089
301.129
301.169
301.21
301.25
301.29
301.329
301.369
301.408
301.446
301.483
301.52
300
300.001
300.001
300.002
300.002
300.003
300.004
300.005
300.006
300.007
300.008
300.009
300.011
300.013
300.015
300.018
300.02
300.023
300.027
300.03
300.034
300.039
300.044
300.049
300.055
300.061
300.068
300.075
300.083
300.092
300.101
300.111
300.121
300.133
300.144
300.157
300.17
300.184
300.199
300.215
300.231
300.248
300.266
300.285
300.305
300.325
300.347
300.369
300.392
300.416
300.441
300.466
300.493
300.52
300.548
300.577
300.607
300.637
300.669
300.701
300.733
300.767
300.801
300.836
300.871
300.907
300.943
300.979
301.016
301.053
301.091
301.128
301.165
301.202
301.239
301.276
301.312
301.348
301.383
301.418
301.452
300
300.001
300.001
300.002
300.002
300.003
300.004
300.005
300.005
300.007
300.008
300.009
300.011
300.013
300.015
300.017
300.02
300.023
300.026
300.03
300.034
300.038
300.043
300.049
300.054
300.06
300.067
300.075
300.082
300.091
300.1
300.11
300.12
300.131
300.142
300.155
300.168
300.182
300.196
300.211
300.227
300.244
300.262
300.28
300.3
300.32
300.34
300.362
300.384
300.408
300.432
300.456
300.482
300.508
300.536
300.563
300.592
300.621
300.651
300.682
300.713
300.745
300.777
300.81
300.843
300.877
300.911
300.945
300.98
301.015
301.049
301.084
301.118
301.153
301.187
301.221
301.254
301.287
301.319
301.351
301.382
300
300.001
300.001
300.002
300.002
300.003
300.004
300.004
300.005
300.007
300.008
300.009
300.011
300.013
300.015
300.017
300.02
300.023
300.026
300.03
300.034
300.038
300.043
300.048
300.053
300.06
300.066
300.073
300.081
300.089
300.098
300.108
300.118
300.129
300.14
300.152
300.165
300.178
300.193
300.207
300.223
300.24
300.257
300.275
300.293
300.313
300.333
300.354
300.376
300.398
300.421
300.445
300.47
300.495
300.521
300.548
300.575
300.603
300.632
300.661
300.691
300.721
300.751
300.782
300.813
300.845
300.877
300.909
300.941
300.973
301.005
301.037
301.069
301.101
301.132
301.163
301.194
301.224
301.254
301.283
301.312
300
300.001
300.001
300.002
300.002
300.003
300.004
300.004
300.005
300.006
300.008
300.009
300.011
300.013
300.015
300.017
300.02
300.022
300.026
300.029
300.033
300.037
300.042
300.047
300.053
300.059
300.065
300.072
300.08
300.088
300.096
300.106
300.116
300.126
300.137
300.149
300.161
300.175
300.188
300.203
300.218
300.234
300.251
300.268
300.286
300.305
300.324
300.345
300.366
300.387
300.409
300.432
300.456
300.48
300.505
300.531
300.557
300.583
300.61
300.638
300.666
300.694
300.723
300.752
300.781
300.81
300.84
300.87
300.9
300.929
300.959
300.989
301.018
301.047
301.076
301.104
301.133
301.16
301.188
301.214
301.241
300
300.001
300.001
300.002
300.002
300.003
300.003
300.004
300.005
300.006
300.008
300.009
300.011
300.012
300.014
300.017
300.019
300.022
300.025
300.029
300.032
300.037
300.041
300.046
300.052
300.057
300.064
300.071
300.078
300.086
300.094
300.103
300.113
300.123
300.134
300.145
300.158
300.17
300.184
300.198
300.212
300.228
300.244
300.261
300.278
300.296
300.315
300.334
300.354
300.375
300.396
300.418
300.441
300.464
300.487
300.511
300.536
300.561
300.586
300.612
300.639
300.665
300.692
300.719
300.746
300.773
300.801
300.828
300.856
300.883
300.911
300.938
300.965
300.991
301.018
301.044
301.07
301.095
301.12
301.145
301.169
300
300.001
300.001
300.002
300.002
300.003
300.003
300.004
300.005
300.006
300.007
300.009
300.01
300.012
300.014
300.016
300.019
300.021
300.025
300.028
300.032
300.036
300.04
300.045
300.05
300.056
300.062
300.069
300.076
300.084
300.092
300.101
300.11
300.12
300.13
300.141
300.153
300.165
300.178
300.192
300.206
300.221
300.236
300.252
300.269
300.286
300.304
300.323
300.342
300.361
300.382
300.402
300.424
300.445
300.468
300.49
300.513
300.537
300.561
300.585
300.609
300.634
300.659
300.684
300.709
300.734
300.76
300.785
300.81
300.835
300.86
300.885
300.91
300.934
300.958
300.982
301.006
301.029
301.052
301.074
301.096
300
300.001
300.001
300.002
300.002
300.003
300.003
300.004
300.005
300.006
300.007
300.009
300.01
300.012
300.014
300.016
300.018
300.021
300.024
300.027
300.031
300.035
300.039
300.044
300.049
300.054
300.06
300.067
300.074
300.081
300.089
300.098
300.107
300.116
300.126
300.137
300.148
300.16
300.172
300.185
300.199
300.213
300.228
300.243
300.259
300.275
300.292
300.31
300.328
300.346
300.365
300.385
300.405
300.425
300.446
300.467
300.489
300.511
300.533
300.555
300.578
300.601
300.624
300.647
300.67
300.693
300.716
300.74
300.763
300.786
300.808
300.831
300.853
300.876
300.898
300.919
300.941
300.962
300.982
301.003
301.023
300
300.001
300.001
300.001
300.002
300.003
300.003
300.004
300.005
300.006
300.007
300.008
300.01
300.011
300.013
300.015
300.018
300.02
300.023
300.026
300.03
300.034
300.038
300.042
300.047
300.053
300.058
300.065
300.071
300.078
300.086
300.094
300.103
300.112
300.122
300.132
300.142
300.154
300.166
300.178
300.191
300.204
300.218
300.233
300.248
300.263
300.279
300.296
300.313
300.33
300.348
300.366
300.385
300.404
300.423
300.443
300.463
300.483
300.503
300.524
300.545
300.566
300.587
300.608
300.629
300.65
300.672
300.693
300.714
300.734
300.755
300.776
300.796
300.816
300.836
300.856
300.875
300.894
300.913
300.931
300.949
300
300.001
300.001
300.001
300.002
300.002
300.003
300.004
300.005
300.006
300.007
300.008
300.009
300.011
300.013
300.015
300.017
300.02
300.022
300.025
300.029
300.032
300.036
300.041
300.046
300.051
300.056
300.062
300.069
300.075
300.083
300.09
300.099
300.107
300.116
300.126
300.136
300.147
300.158
300.17
300.182
300.195
300.208
300.221
300.235
300.25
300.265
300.28
300.296
300.312
300.329
300.346
300.363
300.381
300.399
300.417
300.435
300.454
300.472
300.491
300.51
300.529
300.549
300.568
300.587
300.606
300.625
300.644
300.663
300.682
300.701
300.719
300.738
300.756
300.774
300.792
300.809
300.826
300.843
300.86
300.876
300
300.001
300.001
300.001
300.002
300.002
300.003
300.004
300.005
300.005
300.007
300.008
300.009
300.011
300.012
300.014
300.016
300.019
300.021
300.024
300.028
300.031
300.035
300.039
300.044
300.049
300.054
300.059
300.065
300.072
300.079
300.086
300.094
300.102
300.111
300.12
300.129
300.139
300.15
300.161
300.172
300.184
300.196
300.209
300.222
300.236
300.249
300.264
300.278
300.293
300.309
300.324
300.34
300.356
300.373
300.389
300.406
300.423
300.44
300.457
300.474
300.492
300.509
300.526
300.544
300.561
300.578
300.595
300.612
300.629
300.646
300.663
300.679
300.695
300.712
300.727
300.743
300.758
300.773
300.788
300.803
300
300.001
300.001
300.001
300.002
300.002
300.003
300.004
300.004
300.005
300.006
300.007
300.009
300.01
300.012
300.014
300.016
300.018
300.02
300.023
300.026
300.03
300.033
300.037
300.041
300.046
300.051
300.056
300.062
300.068
300.075
300.081
300.089
300.096
300.105
300.113
300.122
300.131
300.141
300.151
300.162
300.173
300.184
300.196
300.208
300.22
300.233
300.246
300.26
300.273
300.287
300.301
300.316
300.33
300.345
300.36
300.376
300.391
300.406
300.422
300.437
300.453
300.468
300.484
300.499
300.515
300.53
300.546
300.561
300.576
300.591
300.606
300.621
300.635
300.649
300.663
300.677
300.691
300.704
300.718
300.731
300
300
300.001
300.001
300.002
300.002
300.003
300.003
300.004
300.005
300.006
300.007
300.008
300.01
300.011
300.013
300.015
300.017
300.019
300.022
300.025
300.028
300.031
300.035
300.039
300.043
300.048
300.053
300.058
300.064
300.07
300.076
300.083
300.09
300.098
300.106
300.114
300.123
300.132
300.141
300.151
300.161
300.171
300.182
300.193
300.204
300.216
300.228
300.24
300.252
300.265
300.278
300.291
300.304
300.317
300.331
300.344
300.358
300.372
300.386
300.4
300.413
300.427
300.441
300.455
300.469
300.482
300.496
300.509
300.523
300.536
300.549
300.562
300.575
300.588
300.6
300.612
300.625
300.636
300.648
300.66
300
300
300.001
300.001
300.002
300.002
300.003
300.003
300.004
300.005
300.006
300.007
300.008
300.009
300.011
300.012
300.014
300.016
300.018
300.021
300.023
300.026
300.029
300.033
300.037
300.041
300.045
300.049
300.054
300.06
300.065
300.071
300.077
300.084
300.091
300.098
300.105
300.113
300.122
300.13
300.139
300.148
300.157
300.167
300.177
300.187
300.198
300.208
300.219
300.231
300.242
300.253
300.265
300.277
300.289
300.301
300.313
300.325
300.337
300.349
300.362
300.374
300.386
300.398
300.41
300.423
300.435
300.447
300.458
300.47
300.482
300.493
300.505
300.516
300.527
300.538
300.549
300.559
300.57
300.58
300.59
300
300
300.001
300.001
300.001
300.002
300.002
300.003
300.004
300.004
300.005
300.006
300.007
300.008
300.01
300.011
300.013
300.015
300.017
300.019
300.022
300.024
300.027
300.03
300.034
300.037
300.041
300.046
300.05
300.055
300.06
300.065
300.071
300.077
300.083
300.09
300.097
300.104
300.111
300.119
300.127
300.135
300.143
300.152
300.161
300.17
300.179
300.189
300.199
300.208
300.218
300.229
300.239
300.249
300.26
300.27
300.281
300.292
300.302
300.313
300.324
300.334
300.345
300.356
300.366
300.377
300.387
300.398
300.408
300.418
300.429
300.439
300.448
300.458
300.468
300.477
300.487
300.496
300.505
300.514
300.523
300
300
300.001
300.001
300.001
300.002
300.002
300.003
300.003
300.004
300.005
300.006
300.007
300.008
300.009
300.01
300.012
300.014
300.016
300.018
300.02
300.022
300.025
300.028
300.031
300.034
300.038
300.042
300.046
300.05
300.055
300.059
300.064
300.07
300.075
300.081
300.087
300.094
300.1
300.107
300.114
300.121
300.129
300.136
300.144
300.152
300.161
300.169
300.177
300.186
300.195
300.204
300.213
300.222
300.231
300.24
300.249
300.259
300.268
300.277
300.286
300.296
300.305
300.314
300.323
300.332
300.341
300.35
300.359
300.368
300.377
300.385
300.394
300.402
300.411
300.419
300.427
300.435
300.443
300.451
300.458
300
300
300.001
300.001
300.001
300.002
300.002
300.003
300.003
300.004
300.004
300.005
300.006
300.007
300.008
300.009
300.011
300.012
300.014
300.016
300.018
300.02
300.023
300.025
300.028
300.031
300.034
300.037
300.041
300.045
300.049
300.053
300.058
300.062
300.067
300.073
300.078
300.083
300.089
300.095
300.101
300.108
300.114
300.121
300.128
300.135
300.142
300.149
300.156
300.164
300.172
300.179
300.187
300.195
300.203
300.21
300.218
300.226
300.234
300.242
300.25
300.258
300.266
300.274
300.282
300.289
300.297
300.305
300.312
300.32
300.327
300.335
300.342
300.349
300.356
300.363
300.37
300.377
300.383
300.39
300.396
300
300
300.001
300.001
300.001
300.001
300.002
300.002
300.003
300.003
300.004
300.005
300.005
300.006
300.007
300.008
300.01
300.011
300.013
300.014
300.016
300.018
300.02
300.022
300.025
300.027
300.03
300.033
300.036
300.04
300.043
300.047
300.051
300.055
300.059
300.064
300.068
300.073
300.078
300.083
300.089
300.094
300.1
300.106
300.111
300.117
300.123
300.13
300.136
300.142
300.149
300.155
300.162
300.168
300.175
300.182
300.188
300.195
300.202
300.209
300.215
300.222
300.229
300.235
300.242
300.248
300.255
300.261
300.268
300.274
300.28
300.286
300.292
300.298
300.304
300.31
300.316
300.322
300.327
300.333
300.338
300
300
300.001
300.001
300.001
300.001
300.002
300.002
300.002
300.003
300.003
300.004
300.005
300.006
300.006
300.007
300.009
300.01
300.011
300.012
300.014
300.016
300.018
300.02
300.022
300.024
300.026
300.029
300.032
300.035
300.038
300.041
300.044
300.048
300.051
300.055
300.059
300.063
300.067
300.072
300.076
300.081
300.086
300.091
300.095
300.101
300.106
300.111
300.116
300.121
300.127
300.132
300.138
300.143
300.149
300.154
300.16
300.166
300.171
300.177
300.182
300.188
300.193
300.199
300.204
300.21
300.215
300.22
300.226
300.231
300.236
300.241
300.246
300.251
300.256
300.261
300.266
300.27
300.275
300.28
300.284
300
300
300
300.001
300.001
300.001
300.001
300.002
300.002
300.003
300.003
300.004
300.004
300.005
300.006
300.006
300.007
300.008
300.01
300.011
300.012
300.014
300.015
300.017
300.019
300.021
300.023
300.025
300.027
300.03
300.032
300.035
300.038
300.041
300.044
300.047
300.05
300.054
300.057
300.061
300.064
300.068
300.072
300.076
300.08
300.085
300.089
300.093
300.097
300.102
300.106
300.111
300.115
300.12
300.124
300.129
300.133
300.138
300.143
300.147
300.152
300.156
300.161
300.165
300.17
300.174
300.178
300.183
300.187
300.191
300.195
300.2
300.204
300.208
300.212
300.216
300.22
300.223
300.227
300.231
300.235
300
300
300
300.001
300.001
300.001
300.001
300.001
300.002
300.002
300.003
300.003
300.004
300.004
300.005
300.005
300.006
300.007
300.008
300.009
300.01
300.011
300.013
300.014
300.016
300.017
300.019
300.021
300.023
300.025
300.027
300.029
300.031
300.034
300.036
300.039
300.042
300.044
300.047
300.05
300.053
300.056
300.06
300.063
300.066
300.07
300.073
300.076
300.08
300.084
300.087
300.091
300.094
300.098
300.102
300.105
300.109
300.113
300.116
300.12
300.124
300.127
300.131
300.134
300.138
300.142
300.145
300.148
300.152
300.155
300.159
300.162
300.165
300.169
300.172
300.175
300.178
300.181
300.184
300.187
300.19
300
300
300
300
300.001
300.001
300.001
300.001
300.001
300.002
300.002
300.002
300.003
300.003
300.004
300.004
300.005
300.006
300.007
300.007
300.008
300.009
300.01
300.012
300.013
300.014
300.015
300.017
300.018
300.02
300.022
300.024
300.025
300.027
300.029
300.032
300.034
300.036
300.038
300.041
300.043
300.046
300.048
300.051
300.053
300.056
300.059
300.061
300.064
300.067
300.07
300.073
300.076
300.078
300.081
300.084
300.087
300.09
300.093
300.096
300.099
300.101
300.104
300.107
300.11
300.113
300.115
300.118
300.121
300.123
300.126
300.129
300.131
300.134
300.136
300.139
300.141
300.144
300.146
300.148
300.151
300
300
300
300
300
300.001
300.001
300.001
300.001
300.001
300.002
300.002
300.002
300.003
300.003
300.004
300.004
300.005
300.005
300.006
300.007
300.007
300.008
300.009
300.01
300.011
300.012
300.013
300.015
300.016
300.017
300.019
300.02
300.022
300.023
300.025
300.027
300.028
300.03
300.032
300.034
300.036
300.038
300.04
300.042
300.044
300.046
300.048
300.05
300.052
300.055
300.057
300.059
300.061
300.063
300.066
300.068
300.07
300.072
300.074
300.077
300.079
300.081
300.083
300.085
300.087
300.089
300.092
300.094
300.096
300.098
300.1
300.102
300.104
300.105
300.107
300.109
300.111
300.113
300.115
300.116
300
300
300
300
300
300
300.001
300.001
300.001
300.001
300.001
300.002
300.002
300.002
300.002
300.003
300.003
300.004
300.004
300.005
300.005
300.006
300.006
300.007
300.008
300.009
300.01
300.01
300.011
300.012
300.013
300.014
300.016
300.017
300.018
300.019
300.02
300.022
300.023
300.025
300.026
300.027
300.029
300.03
300.032
300.033
300.035
300.037
300.038
300.04
300.042
300.043
300.045
300.046
300.048
300.05
300.051
300.053
300.055
300.056
300.058
300.06
300.061
300.063
300.064
300.066
300.068
300.069
300.071
300.072
300.074
300.075
300.077
300.078
300.08
300.081
300.082
300.084
300.085
300.086
300.088
300
300
300
300
300
300
300
300.001
300.001
300.001
300.001
300.001
300.001
300.002
300.002
300.002
300.002
300.003
300.003
300.003
300.004
300.004
300.005
300.005
300.006
300.006
300.007
300.008
300.008
300.009
300.01
300.011
300.012
300.012
300.013
300.014
300.015
300.016
300.017
300.018
300.019
300.02
300.021
300.023
300.024
300.025
300.026
300.027
300.028
300.029
300.031
300.032
300.033
300.034
300.035
300.037
300.038
300.039
300.04
300.041
300.043
300.044
300.045
300.046
300.047
300.049
300.05
300.051
300.052
300.053
300.054
300.055
300.056
300.057
300.058
300.059
300.06
300.061
300.062
300.063
300.064
300
300
300
300
300
300
300
300
300
300.001
300.001
300.001
300.001
300.001
300.001
300.001
300.002
300.002
300.002
300.002
300.003
300.003
300.003
300.004
300.004
300.005
300.005
300.006
300.006
300.007
300.007
300.008
300.008
300.009
300.01
300.01
300.011
300.012
300.012
300.013
300.014
300.015
300.015
300.016
300.017
300.018
300.019
300.02
300.02
300.021
300.022
300.023
300.024
300.025
300.025
300.026
300.027
300.028
300.029
300.03
300.031
300.031
300.032
300.033
300.034
300.035
300.036
300.036
300.037
300.038
300.039
300.039
300.04
300.041
300.042
300.042
300.043
300.044
300.045
300.045
300.046
300
300
300
300
300
300
300
300
300
300
300
300.001
300.001
300.001
300.001
300.001
300.001
300.001
300.002
300.002
300.002
300.002
300.002
300.003
300.003
300.003
300.004
300.004
300.004
300.005
300.005
300.006
300.006
300.006
300.007
300.007
300.008
300.008
300.009
300.009
300.01
300.01
300.011
300.011
300.012
300.013
300.013
300.014
300.014
300.015
300.016
300.016
300.017
300.017
300.018
300.019
300.019
300.02
300.02
300.021
300.022
300.022
300.023
300.023
300.024
300.024
300.025
300.026
300.026
300.027
300.027
300.028
300.028
300.029
300.029
300.03
300.03
300.031
300.031
300.032
300.032
300
300
300
300
300
300
300
300
300
300
300
300
300
300.001
300.001
300.001
300.001
300.001
300.001
300.001
300.001
300.002
300.002
300.002
300.002
300.002
300.003
300.003
300.003
300.003
300.004
300.004
300.004
300.005
300.005
300.005
300.006
300.006
300.006
300.007
300.007
300.007
300.008
300.008
300.009
300.009
300.01
300.01
300.01
300.011
300.011
300.012
300.012
300.013
300.013
300.013
300.014
300.014
300.015
300.015
300.016
300.016
300.016
300.017
300.017
300.018
300.018
300.018
300.019
300.019
300.02
300.02
300.02
300.021
300.021
300.022
300.022
300.022
300.023
300.023
300.023
300
300
300
300
300
300
300
300
300
300
300
300
300
300
300
300.001
300.001
300.001
300.001
300.001
300.001
300.001
300.001
300.002
300.002
300.002
300.002
300.002
300.002
300.003
300.003
300.003
300.003
300.004
300.004
300.004
300.004
300.005
300.005
300.005
300.006
300.006
300.006
300.007
300.007
300.007
300.008
300.008
300.008
300.009
300.009
300.009
300.01
300.01
300.01
300.011
300.011
300.011
300.012
300.012
300.012
300.013
300.013
300.013
300.014
300.014
300.014
300.015
300.015
300.015
300.016
300.016
300.016
300.017
300.017
300.017
300.018
300.018
300.018
300.018
300.019
302.427
302.55
302.622
302.689
302.747
302.794
302.825
302.861
302.896
302.928
302.955
302.984
303.014
303.042
303.07
303.098
303.123
303.145
303.169
303.192
303.215
303.238
303.261
303.283
303.305
303.326
303.346
303.367
303.387
303.406
303.425
303.444
303.461
303.479
303.497
303.514
303.53
303.547
303.563
303.578
303.594
303.608
303.624
303.64
303.656
303.67
303.684
303.698
303.712
303.726
303.739
303.751
303.763
303.776
303.789
303.801
303.814
303.826
303.838
303.848
303.858
303.867
303.878
303.888
303.898
303.907
303.917
303.926
303.935
303.943
303.951
303.959
303.967
303.974
303.982
303.988
303.995
304.001
304.007
304.014
304.021
304.027
304.032
304.037
304.041
304.045
304.05
304.055
304.059
304.063
304.066
304.069
304.073
304.076
304.079
304.082
304.085
304.087
304.09
304.092
304.093
304.095
304.097
304.098
304.1
304.101
304.102
304.103
304.104
304.104
304.105
304.106
304.106
304.107
304.107
304.107
304.107
304.107
304.107
304.107
304.107
304.107
304.106
304.105
304.104
304.103
304.102
304.1
304.098
304.096
304.093
304.089
304.086
304.081
304.076
304.071
304.064
304.057
304.05
304.041
304.031
304.021
304.009
303.996
303.981
303.965
303.947
303.927
303.904
303.877
303.844
303.81
303.775
303.735
303.689
303.635
303.575
303.469
303.368
303.237
303.057
302.328
302.436
302.518
302.588
302.648
302.698
302.739
302.778
302.815
302.849
302.881
302.912
302.942
302.972
303
303.028
303.054
303.079
303.103
303.127
303.151
303.174
303.197
303.22
303.242
303.264
303.284
303.305
303.325
303.345
303.364
303.383
303.401
303.419
303.437
303.454
303.471
303.488
303.504
303.52
303.536
303.551
303.567
303.582
303.598
303.612
303.626
303.641
303.655
303.669
303.682
303.694
303.707
303.72
303.732
303.745
303.757
303.769
303.781
303.792
303.802
303.812
303.822
303.832
303.842
303.851
303.861
303.87
303.879
303.887
303.896
303.904
303.911
303.919
303.926
303.933
303.94
303.946
303.952
303.958
303.965
303.971
303.976
303.981
303.986
303.99
303.995
303.999
304.004
304.007
304.011
304.014
304.018
304.021
304.024
304.027
304.03
304.032
304.034
304.036
304.038
304.04
304.042
304.043
304.045
304.046
304.047
304.048
304.049
304.049
304.05
304.051
304.051
304.052
304.052
304.052
304.052
304.052
304.052
304.052
304.052
304.051
304.051
304.05
304.049
304.048
304.047
304.045
304.043
304.04
304.038
304.034
304.031
304.026
304.021
304.016
304.01
304.003
303.995
303.986
303.977
303.966
303.954
303.941
303.927
303.911
303.892
303.872
303.849
303.822
303.79
303.756
303.72
303.679
303.632
303.577
303.512
303.41
303.304
303.166
302.97
302.247
302.34
302.421
302.491
302.551
302.604
302.651
302.693
302.732
302.768
302.802
302.835
302.867
302.897
302.927
302.955
302.983
303.009
303.034
303.059
303.083
303.107
303.13
303.153
303.176
303.197
303.219
303.24
303.26
303.28
303.3
303.319
303.338
303.356
303.374
303.391
303.409
303.426
303.442
303.458
303.474
303.49
303.505
303.521
303.536
303.551
303.566
303.58
303.594
303.608
303.621
303.634
303.647
303.66
303.672
303.685
303.697
303.709
303.721
303.732
303.742
303.752
303.762
303.772
303.782
303.792
303.801
303.811
303.82
303.828
303.836
303.845
303.852
303.86
303.867
303.874
303.881
303.887
303.893
303.9
303.906
303.912
303.917
303.922
303.927
303.932
303.936
303.941
303.945
303.948
303.952
303.955
303.959
303.962