/*--------------------------------*- C++ -*----------------------------------*\
| =========                 |                                                 |
| \\      /  F ield         | OpenFOAM: The Open Source CFD Toolbox           |
|  \\    /   O peration     | Version:  2106                                  |
|   \\  /    A nd           | Website:  www.openfoam.com                      |
|    \\/     M anipulation  |                                                 |
\*---------------------------------------------------------------------------*/
FoamFile
{
    version     2.0;
    format      ascii;
    arch        "LSB;label=32;scalar=64";
    class       volVectorField;
    location    "0.99";
    object      U;
}
// * * * * * * * * * * * * * * * * * * * * * * * * * * * * * * * * * * * * * //

dimensions      [0 1 -1 0 0 0 0];

internalField   nonuniform List<vector> 
12013
(
(0.100006 -1.50041e-06 0)
(0.100027 -2.42927e-06 0)
(0.100056 -2.67774e-06 0)
(0.100083 -2.12071e-06 0)
(0.1001 -7.99628e-07 0)
(0.1001 1.09599e-06 0)
(0.10008 3.2522e-06 0)
(0.10004 5.31694e-06 0)
(0.0999838 6.9985e-06 0)
(0.0999158 8.13236e-06 0)
(0.0998418 8.69217e-06 0)
(0.0997671 8.75897e-06 0)
(0.0996953 8.46785e-06 0)
(0.0996287 7.96147e-06 0)
(0.0995684 7.35624e-06 0)
(0.0995145 6.72966e-06 0)
(0.0994668 6.12338e-06 0)
(0.0994248 5.54852e-06 0)
(0.0993881 5.00078e-06 0)
(0.0993565 4.46649e-06 0)
(0.0993296 3.93131e-06 0)
(0.0993074 3.3808e-06 0)
(0.0992898 2.806e-06 0)
(0.099277 2.19968e-06 0)
(0.099269 1.55842e-06 0)
(0.0992658 8.80223e-07 0)
(0.0992676 1.64858e-07 0)
(0.0992744 -5.86743e-07 0)
(0.0992861 -1.37277e-06 0)
(0.099303 -2.19174e-06 0)
(0.0993249 -3.04132e-06 0)
(0.0993518 -3.91826e-06 0)
(0.0993837 -4.81922e-06 0)
(0.0994206 -5.73967e-06 0)
(0.0994623 -6.67492e-06 0)
(0.0995087 -7.61912e-06 0)
(0.0995597 -8.56514e-06 0)
(0.0996151 -9.50486e-06 0)
(0.0996746 -1.04285e-05 0)
(0.099738 -1.13256e-05 0)
(0.099805 -1.21832e-05 0)
(0.0998752 -1.29869e-05 0)
(0.0999482 -1.37203e-05 0)
(0.100024 -1.43653e-05 0)
(0.100101 -1.49007e-05 0)
(0.100179 -1.53032e-05 0)
(0.100258 -1.55462e-05 0)
(0.100336 -1.55994e-05 0)
(0.100414 -1.54292e-05 0)
(0.100489 -1.49972e-05 0)
(0.100562 -1.42591e-05 0)
(0.10063 -1.31649e-05 0)
(0.100692 -1.16566e-05 0)
(0.100748 -9.66706e-06 0)
(0.100796 -7.11835e-06 0)
(0.100833 -3.91898e-06 0)
(0.100857 3.98095e-08 0)
(0.100867 4.88809e-06 0)
(0.10086 1.07807e-05 0)
(0.100833 1.79058e-05 0)
(0.100782 2.64939e-05 0)
(0.100704 3.68294e-05 0)
(0.100593 4.92676e-05 0)
(0.100444 6.42576e-05 0)
(0.100251 8.2374e-05 0)
(0.100006 0.000104361 0)
(0.0996974 0.000131198 0)
(0.0993145 0.000164197 0)
(0.0988413 0.000205141 0)
(0.0982581 0.000256507 0)
(0.0975388 0.000321807 0)
(0.0966491 0.000406132 0)
(0.0955419 0.000517043 0)
(0.0941524 0.000666048 0)
(0.0923877 0.00087112 0)
(0.0901138 0.00116103 0)
(0.0871306 0.00158305 0)
(0.0831201 0.00221892 0)
(0.0775822 0.00323476 0)
(0.0699146 0.00509655 0)
(0.0612655 0.00990687 0)
(0.100006 -4.59977e-06 0)
(0.100027 -7.46848e-06 0)
(0.100056 -8.24135e-06 0)
(0.100083 -6.53932e-06 0)
(0.1001 -2.49105e-06 0)
(0.100101 3.32254e-06 0)
(0.100081 9.94112e-06 0)
(0.100042 1.62818e-05 0)
(0.099986 2.14498e-05 0)
(0.0999182 2.49381e-05 0)
(0.0998445 2.66656e-05 0)
(0.0997698 2.68789e-05 0)
(0.099698 2.59932e-05 0)
(0.0996314 2.44451e-05 0)
(0.0995709 2.2592e-05 0)
(0.0995169 2.06731e-05 0)
(0.099469 1.88144e-05 0)
(0.0994268 1.70533e-05 0)
(0.0993899 1.53745e-05 0)
(0.099358 1.37372e-05 0)
(0.0993308 1.20965e-05 0)
(0.0993083 1.04108e-05 0)
(0.0992905 8.65031e-06 0)
(0.0992773 6.79437e-06 0)
(0.0992689 4.83143e-06 0)
(0.0992652 2.75627e-06 0)
(0.0992665 5.67754e-07 0)
(0.0992727 -1.73126e-06 0)
(0.0992839 -4.1357e-06 0)
(0.0993001 -6.64027e-06 0)
(0.0993213 -9.23716e-06 0)
(0.0993475 -1.19179e-05 0)
(0.0993786 -1.46707e-05 0)
(0.0994146 -1.74827e-05 0)
(0.0994553 -2.03392e-05 0)
(0.0995007 -2.32217e-05 0)
(0.0995506 -2.61093e-05 0)
(0.0996047 -2.89763e-05 0)
(0.099663 -3.17929e-05 0)
(0.0997251 -3.45264e-05 0)
(0.0997906 -3.7138e-05 0)
(0.0998593 -3.95834e-05 0)
(0.0999307 -4.18125e-05 0)
(0.100004 -4.37686e-05 0)
(0.10008 -4.53881e-05 0)
(0.100156 -4.65985e-05 0)
(0.100233 -4.73184e-05 0)
(0.100309 -4.74564e-05 0)
(0.100385 -4.69088e-05 0)
(0.100458 -4.55577e-05 0)
(0.100528 -4.32683e-05 0)
(0.100594 -3.98871e-05 0)
(0.100655 -3.52377e-05 0)
(0.100708 -2.91152e-05 0)
(0.100753 -2.12814e-05 0)
(0.100788 -1.14567e-05 0)
(0.10081 6.90037e-07 0)
(0.100818 1.55526e-05 0)
(0.100809 3.36021e-05 0)
(0.10078 5.54085e-05 0)
(0.100728 8.16689e-05 0)
(0.100649 0.000113243 0)
(0.100537 0.000151201 0)
(0.100389 0.000196892 0)
(0.100198 0.000252037 0)
(0.0999558 0.000318855 0)
(0.0996534 0.000400257 0)
(0.0992794 0.000500109 0)
(0.0988199 0.000623643 0)
(0.098257 0.000778056 0)
(0.0975681 0.00097344 0)
(0.0967237 0.00122423 0)
(0.0956856 0.00155149 0)
(0.0944028 0.00198654 0)
(0.0928075 0.00257679 0)
(0.0908096 0.00339484 0)
(0.0882917 0.00455195 0)
(0.0850987 0.00621679 0)
(0.0810562 0.00864066 0)
(0.0762155 0.0121244 0)
(0.0719861 0.0165533 0)
(0.100005 -7.88266e-06 0)
(0.100027 -1.28805e-05 0)
(0.100056 -1.42432e-05 0)
(0.100083 -1.13505e-05 0)
(0.100101 -4.41977e-06 0)
(0.100102 5.55789e-06 0)
(0.100084 1.69352e-05 0)
(0.100046 2.78524e-05 0)
(0.0999904 3.6768e-05 0)
(0.0999235 4.28057e-05 0)
(0.0998504 4.58195e-05 0)
(0.0997761 4.62278e-05 0)
(0.0997045 4.47411e-05 0)
(0.0996378 4.21077e-05 0)
(0.0995772 3.89428e-05 0)
(0.0995229 3.56597e-05 0)
(0.0994746 3.24743e-05 0)
(0.099432 2.94551e-05 0)
(0.0993947 2.65765e-05 0)
(0.0993623 2.37703e-05 0)
(0.0993347 2.09586e-05 0)
(0.0993116 1.80726e-05 0)
(0.0992932 1.506e-05 0)
(0.0992794 1.18866e-05 0)
(0.0992702 8.53168e-06 0)
(0.0992658 4.98707e-06 0)
(0.0992662 1.251e-06 0)
(0.0992715 -2.67203e-06 0)
(0.0992816 -6.77392e-06 0)
(0.0992967 -1.1044e-05 0)
(0.0993166 -1.54698e-05 0)
(0.0993413 -2.00354e-05 0)
(0.0993709 -2.47216e-05 0)
(0.0994052 -2.95062e-05 0)
(0.0994442 -3.43628e-05 0)
(0.0994876 -3.92602e-05 0)
(0.0995354 -4.41618e-05 0)
(0.0995874 -4.90233e-05 0)
(0.0996432 -5.3795e-05 0)
(0.0997027 -5.84186e-05 0)
(0.0997655 -6.28284e-05 0)
(0.0998313 -6.69482e-05 0)
(0.0998996 -7.06919e-05 0)
(0.09997 -7.39624e-05 0)
(0.100042 -7.66504e-05 0)
(0.100115 -7.86319e-05 0)
(0.100188 -7.97674e-05 0)
(0.10026 -7.99009e-05 0)
(0.100332 -7.88544e-05 0)
(0.100401 -7.64268e-05 0)
(0.100467 -7.23887e-05 0)
(0.100528 -6.64784e-05 0)
(0.100584 -5.83952e-05 0)
(0.100633 -4.77913e-05 0)
(0.100673 -3.42622e-05 0)
(0.100703 -1.73338e-05 0)
(0.100721 3.55334e-06 0)
(0.100725 2.90619e-05 0)
(0.100712 5.99831e-05 0)
(0.100679 9.72727e-05 0)
(0.100624 0.000142094 0)
(0.100542 0.000195878 0)
(0.10043 0.000260394 0)
(0.100282 0.000337864 0)
(0.100093 0.000431098 0)
(0.0998561 0.000543697 0)
(0.099563 0.00068033 0)
(0.099204 0.00084714 0)
(0.0987672 0.00105231 0)
(0.0982385 0.0013069 0)
(0.0976002 0.0016261 0)
(0.096831 0.00203104 0)
(0.095905 0.00255148 0)
(0.0947916 0.00322972 0)
(0.0934557 0.0041261 0)
(0.0918615 0.00532575 0)
(0.0899814 0.00694476 0)
(0.0878133 0.00912903 0)
(0.0854268 0.0120303 0)
(0.0831034 0.0156786 0)
(0.0816069 0.0194536 0)
(0.100005 -1.13459e-05 0)
(0.100026 -1.86844e-05 0)
(0.100056 -2.07198e-05 0)
(0.100084 -1.66211e-05 0)
(0.100102 -6.68102e-06 0)
(0.100105 7.68396e-06 0)
(0.100088 2.41061e-05 0)
(0.100051 3.99065e-05 0)
(0.0999977 5.28548e-05 0)
(0.0999322 6.16736e-05 0)
(0.0998602 6.61358e-05 0)
(0.0997866 6.68308e-05 0)
(0.0997154 6.47747e-05 0)
(0.0996488 6.10422e-05 0)
(0.099588 5.65221e-05 0)
(0.0995333 5.18138e-05 0)
(0.0994846 4.7235e-05 0)
(0.0994415 4.28883e-05 0)
(0.0994036 3.87424e-05 0)
(0.0993706 3.47017e-05 0)
(0.0993423 3.06562e-05 0)
(0.0993185 2.65082e-05 0)
(0.0992993 2.21835e-05 0)
(0.0992847 1.76321e-05 0)
(0.0992746 1.28256e-05 0)
(0.0992691 7.75088e-06 0)
(0.0992684 2.40689e-06 0)
(0.0992723 -3.2003e-06 0)
(0.099281 -9.05893e-06 0)
(0.0992945 -1.51535e-05 0)
(0.0993126 -2.14658e-05 0)
(0.0993355 -2.79716e-05 0)
(0.099363 -3.4644e-05 0)
(0.099395 -4.14501e-05 0)
(0.0994315 -4.83514e-05 0)
(0.0994722 -5.53028e-05 0)
(0.0995171 -6.22501e-05 0)
(0.0995659 -6.91306e-05 0)
(0.0996184 -7.58715e-05 0)
(0.0996743 -8.23888e-05 0)
(0.0997332 -8.85869e-05 0)
(0.0997949 -9.43561e-05 0)
(0.0998588 -9.95727e-05 0)
(0.0999246 -0.000104097 0)
(0.0999917 -0.00010777 0)
(0.100059 -0.000110416 0)
(0.100127 -0.000111833 0)
(0.100194 -0.000111798 0)
(0.10026 -0.000110055 0)
(0.100323 -0.000106317 0)
(0.100382 -0.000100256 0)
(0.100438 -9.15003e-05 0)
(0.100487 -7.96204e-05 0)
(0.100529 -6.41228e-05 0)
(0.100563 -4.44346e-05 0)
(0.100587 -1.98855e-05 0)
(0.100598 1.03116e-05 0)
(0.100596 4.70847e-05 0)
(0.100577 9.15386e-05 0)
(0.10054 0.000145003 0)
(0.10048 0.000209086 0)
(0.100396 0.000285753 0)
(0.100283 0.000377422 0)
(0.100136 0.000487094 0)
(0.0999515 0.000618536 0)
(0.0997232 0.000776515 0)
(0.0994445 0.000967127 0)
(0.0991078 0.00119825 0)
(0.0987045 0.00148019 0)
(0.0982245 0.0018265 0)
(0.0976567 0.00225526 0)
(0.096989 0.00279065 0)
(0.0962094 0.00346517 0)
(0.0953074 0.00432231 0)
(0.094278 0.00541934 0)
(0.0931282 0.00682881 0)
(0.0918892 0.00863483 0)
(0.0906341 0.0109154 0)
(0.0895041 0.0136937 0)
(0.0887376 0.0168154 0)
(0.0886372 0.0196723 0)
(0.100005 -1.50101e-05 0)
(0.100026 -2.49082e-05 0)
(0.100056 -2.77277e-05 0)
(0.100084 -2.24454e-05 0)
(0.100104 -9.41059e-06 0)
(0.100108 9.52717e-06 0)
(0.100093 3.12586e-05 0)
(0.100059 5.22495e-05 0)
(0.100008 6.95397e-05 0)
(0.0999447 8.1414e-05 0)
(0.0998744 8.75401e-05 0)
(0.099802 8.86681e-05 0)
(0.0997314 8.61223e-05 0)
(0.099665 8.13147e-05 0)
(0.099604 7.54216e-05 0)
(0.099549 6.92429e-05 0)
(0.0994997 6.32101e-05 0)
(0.099456 5.7469e-05 0)
(0.0994175 5.19866e-05 0)
(0.0993837 4.66443e-05 0)
(0.0993547 4.13013e-05 0)
(0.0993301 3.5831e-05 0)
(0.09931 3.01369e-05 0)
(0.0992944 2.41537e-05 0)
(0.0992832 1.78438e-05 0)
(0.0992765 1.11904e-05 0)
(0.0992744 4.192e-06 0)
(0.0992768 -3.14315e-06 0)
(0.0992838 -1.07994e-05 0)
(0.0992954 -1.8756e-05 0)
(0.0993114 -2.69871e-05 0)
(0.099332 -3.54617e-05 0)
(0.0993569 -4.41425e-05 0)
(0.0993861 -5.29858e-05 0)
(0.0994195 -6.19397e-05 0)
(0.099457 -7.09436e-05 0)
(0.0994983 -7.99253e-05 0)
(0.0995432 -8.88011e-05 0)
(0.0995915 -9.74741e-05 0)
(0.0996429 -0.000105834 0)
(0.0996971 -0.000113751 0)
(0.0997536 -0.000121083 0)
(0.0998122 -0.000127666 0)
(0.0998722 -0.000133313 0)
(0.0999332 -0.000137818 0)
(0.0999946 -0.000140946 0)
(0.100056 -0.000142434 0)
(0.100116 -0.000141988 0)
(0.100174 -0.000139274 0)
(0.10023 -0.000133916 0)
(0.100282 -0.000125487 0)
(0.100329 -0.0001135 0)
(0.100371 -9.74017e-05 0)
(0.100405 -7.65511e-05 0)
(0.100431 -5.02099e-05 0)
(0.100447 -1.75166e-05 0)
(0.100451 2.25338e-05 0)
(0.100441 7.11193e-05 0)
(0.100416 0.000129638 0)
(0.100373 0.000199761 0)
(0.10031 0.000283494 0)
(0.100223 0.000383266 0)
(0.10011 0.000502037 0)
(0.0999662 0.000643441 0)
(0.099789 0.000811972 0)
(0.0995735 0.00101323 0)
(0.0993151 0.00125426 0)
(0.0990087 0.00154394 0)
(0.098649 0.00189358 0)
(0.0982307 0.0023176 0)
(0.0977492 0.00283449 0)
(0.0972013 0.00346786 0)
(0.0965869 0.00424759 0)
(0.0959115 0.00521086 0)
(0.0951904 0.00640206 0)
(0.0944545 0.00787018 0)
(0.0937585 0.00966001 0)
(0.0931894 0.0117911 0)
(0.0928707 0.0142158 0)
(0.0929469 0.0167453 0)
(0.0935078 0.0189537 0)
(0.100005 -1.88937e-05 0)
(0.100026 -3.1583e-05 0)
(0.100056 -3.53317e-05 0)
(0.100085 -2.89349e-05 0)
(0.100106 -1.27754e-05 0)
(0.100112 1.08718e-05 0)
(0.1001 3.81451e-05 0)
(0.100069 6.46285e-05 0)
(0.100022 8.65938e-05 0)
(0.0999612 0.000101846 0)
(0.0998932 0.000109914 0)
(0.0998225 0.000111687 0)
(0.0997528 0.00010879 0)
(0.0996868 0.000102978 0)
(0.0996258 9.5727e-05 0)
(0.0995704 8.80529e-05 0)
(0.0995207 8.05143e-05 0)
(0.0994763 7.33131e-05 0)
(0.099437 6.64244e-05 0)
(0.0994025 5.97116e-05 0)
(0.0993726 5.30055e-05 0)
(0.0993472 4.6153e-05 0)
(0.0993261 3.9035e-05 0)
(0.0993094 3.15711e-05 0)
(0.0992971 2.37151e-05 0)
(0.0992891 1.54457e-05 0)
(0.0992855 6.76061e-06 0)
(0.0992863 -2.3293e-06 0)
(0.0992914 -1.18039e-05 0)
(0.0993008 -2.16363e-05 0)
(0.0993145 -3.17935e-05 0)
(0.0993324 -4.22355e-05 0)
(0.0993545 -5.29144e-05 0)
(0.0993805 -6.37744e-05 0)
(0.0994105 -7.4749e-05 0)
(0.0994441 -8.57607e-05 0)
(0.0994813 -9.67176e-05 0)
(0.0995217 -0.000107514 0)
(0.0995652 -0.000118028 0)
(0.0996115 -0.000128119 0)
(0.0996601 -0.000137626 0)
(0.0997108 -0.000146369 0)
(0.0997631 -0.000154141 0)
(0.0998165 -0.000160711 0)
(0.0998705 -0.000165819 0)
(0.0999245 -0.000169174 0)
(0.099978 -0.000170449 0)
(0.10003 -0.000169277 0)
(0.10008 -0.000165246 0)
(0.100127 -0.000157891 0)
(0.10017 -0.000146686 0)
(0.100209 -0.000131035 0)
(0.100241 -0.000110259 0)
(0.100267 -8.35797e-05 0)
(0.100284 -5.01e-05 0)
(0.100291 -8.78227e-06 0)
(0.100287 4.1575e-05 0)
(0.10027 0.000102374 0)
(0.100239 0.000175266 0)
(0.100191 0.00026221 0)
(0.100123 0.000365531 0)
(0.100035 0.000488014 0)
(0.0999238 0.00063301 0)
(0.0997861 0.000804572 0)
(0.0996197 0.00100763 0)
(0.0994217 0.00124819 0)
(0.0991894 0.00153365 0)
(0.0989204 0.00187307 0)
(0.0986127 0.0022776 0)
(0.0982654 0.00276096 0)
(0.0978796 0.00333988 0)
(0.0974589 0.00403455 0)
(0.0970117 0.00486883 0)
(0.0965533 0.0058698 0)
(0.0961085 0.00706605 0)
(0.0957157 0.00848332 0)
(0.0954299 0.0101357 0)
(0.0953235 0.0120092 0)
(0.0954802 0.0140361 0)
(0.0959719 0.0160621 0)
(0.0968061 0.0178232 0)
(0.100005 -2.30115e-05 0)
(0.100026 -3.87422e-05 0)
(0.100056 -4.36043e-05 0)
(0.100086 -3.62158e-05 0)
(0.100108 -1.6966e-05 0)
(0.100117 1.14643e-05 0)
(0.100109 4.44679e-05 0)
(0.100082 7.67324e-05 0)
(0.100038 0.000103727 0)
(0.0999815 0.000122732 0)
(0.0999166 0.000133089 0)
(0.0998481 0.000135795 0)
(0.0997798 0.000132755 0)
(0.0997144 0.000126065 0)
(0.0996536 0.000117511 0)
(0.0995979 0.00010834 0)
(0.0995476 9.92566e-05 0)
(0.0995026 9.05342e-05 0)
(0.0994626 8.21683e-05 0)
(0.0994273 7.40124e-05 0)
(0.0993966 6.58752e-05 0)
(0.0993703 5.75796e-05 0)
(0.0993483 4.89853e-05 0)
(0.0993306 3.99977e-05 0)
(0.099317 3.05607e-05 0)
(0.0993077 2.06487e-05 0)
(0.0993025 1.02594e-05 0)
(0.0993015 -5.93971e-07 0)
(0.0993046 -1.18865e-05 0)
(0.0993118 -2.35849e-05 0)
(0.099323 -3.56476e-05 0)
(0.0993381 -4.80248e-05 0)
(0.099357 -6.06573e-05 0)
(0.0993796 -7.34752e-05 0)
(0.0994058 -8.63965e-05 0)
(0.0994353 -9.93256e-05 0)
(0.0994679 -0.00011215 0)
(0.0995035 -0.00012474 0)
(0.0995417 -0.000136947 0)
(0.0995823 -0.000148599 0)
(0.0996249 -0.000159502 0)
(0.0996691 -0.000169436 0)
(0.0997144 -0.000178153 0)
(0.0997605 -0.000185374 0)
(0.0998068 -0.000190787 0)
(0.0998528 -0.000194043 0)
(0.0998978 -0.00019475 0)
(0.0999411 -0.000192472 0)
(0.0999821 -0.000186717 0)
(0.10002 -0.000176936 0)
(0.100054 -0.000162508 0)
(0.100083 -0.000142732 0)
(0.100106 -0.000116815 0)
(0.100121 -8.38497e-05 0)
(0.100129 -4.28001e-05 0)
(0.100128 7.5236e-06 0)
(0.100116 6.84871e-05 0)
(0.100092 0.000141676 0)
(0.100054 0.00022894 0)
(0.100001 0.000332443 0)
(0.0999319 0.000454729 0)
(0.0998444 0.000598797 0)
(0.0997369 0.0007682 0)
(0.0996079 0.000967155 0)
(0.0994559 0.00120068 0)
(0.0992797 0.00147476 0)
(0.0990785 0.00179652 0)
(0.0988522 0.00217443 0)
(0.0986017 0.00261849 0)
(0.0983298 0.00314045 0)
(0.0980413 0.00375386 0)
(0.0977446 0.00447398 0)
(0.0974524 0.00531732 0)
(0.0971836 0.00630051 0)
(0.0969648 0.00743806 0)
(0.0968316 0.00873831 0)
(0.0968282 0.0101968 0)
(0.0970055 0.0117865 0)
(0.0974122 0.013445 0)
(0.0980782 0.0150636 0)
(0.0989856 0.0164876 0)
(0.100005 -2.7378e-05 0)
(0.100026 -4.64193e-05 0)
(0.100056 -5.26214e-05 0)
(0.100086 -4.44222e-05 0)
(0.100111 -2.21912e-05 0)
(0.100123 1.10227e-05 0)
(0.100119 4.98896e-05 0)
(0.100097 8.82016e-05 0)
(0.100058 0.000120596 0)
(0.100005 0.000143777 0)
(0.099944 0.000156845 0)
(0.0998783 0.000160851 0)
(0.0998119 0.000157954 0)
(0.0997475 0.000150577 0)
(0.099687 0.000140821 0)
(0.0996312 0.000130183 0)
(0.0995805 0.000119532 0)
(0.0995349 0.000109234 0)
(0.0994942 9.932e-05 0)
(0.0994582 8.96464e-05 0)
(0.0994268 8.00083e-05 0)
(0.0993996 7.02075e-05 0)
(0.0993767 6.00867e-05 0)
(0.0993579 4.95367e-05 0)
(0.0993431 3.84919e-05 0)
(0.0993324 2.69229e-05 0)
(0.0993257 1.48268e-05 0)
(0.0993229 2.21969e-06 0)
(0.0993239 -1.08691e-05 0)
(0.0993288 -2.43982e-05 0)
(0.0993373 -3.83171e-05 0)
(0.0993495 -5.25654e-05 0)
(0.0993651 -6.7071e-05 0)
(0.0993841 -8.17491e-05 0)
(0.0994063 -9.65008e-05 0)
(0.0994314 -0.00011121 0)
(0.0994593 -0.000125743 0)
(0.0994897 -0.000139946 0)
(0.0995223 -0.000153639 0)
(0.0995568 -0.000166622 0)
(0.0995928 -0.000178664 0)
(0.0996301 -0.000189507 0)
(0.0996681 -0.000198859 0)
(0.0997065 -0.000206394 0)
(0.0997446 -0.000211748 0)
(0.099782 -0.000214515 0)
(0.0998181 -0.000214241 0)
(0.0998522 -0.000210421 0)
(0.0998836 -0.000202492 0)
(0.0999118 -0.000189823 0)
(0.0999357 -0.000171707 0)
(0.0999547 -0.000147349 0)
(0.0999679 -0.000115855 0)
(0.0999743 -7.62111e-05 0)
(0.099973 -2.7265e-05 0)
(0.099963 3.22894e-05 0)
(0.0999431 0.00010394 0)
(0.0999124 0.000189399 0)
(0.0998698 0.00029064 0)
(0.099814 0.000409939 0)
(0.0997442 0.000549929 0)
(0.0996593 0.000713665 0)
(0.0995585 0.000904691 0)
(0.0994411 0.00112712 0)
(0.0993068 0.00138574 0)
(0.0991559 0.00168605 0)
(0.0989891 0.00203442 0)
(0.0988083 0.0024381 0)
(0.0986166 0.00290528 0)
(0.098419 0.00344501 0)
(0.0982227 0.00406705 0)
(0.098038 0.00478145 0)
(0.0978788 0.00559781 0)
(0.0977636 0.00652404 0)
(0.0977157 0.00756441 0)
(0.0977631 0.00871662 0)
(0.0979373 0.0099678 0)
(0.09827 0.0112896 0)
(0.0987865 0.0126333 0)
(0.0994956 0.0139279 0)
(0.100377 0.0150849 0)
(0.100004 -3.20063e-05 0)
(0.100025 -5.46466e-05 0)
(0.100056 -6.24549e-05 0)
(0.100087 -5.36876e-05 0)
(0.100114 -2.86619e-05 0)
(0.100129 9.25527e-06 0)
(0.10013 5.40545e-05 0)
(0.100112 9.86479e-05 0)
(0.100079 0.00013682 0)
(0.100032 0.000164644 0)
(0.0999747 0.000180913 0)
(0.0999123 0.00018667 0)
(0.0998481 0.000184279 0)
(0.0997851 0.000176475 0)
(0.0997252 0.000165672 0)
(0.0996695 0.000153633 0)
(0.0996186 0.000141415 0)
(0.0995726 0.000129497 0)
(0.0995313 0.000117968 0)
(0.0994947 0.000106703 0)
(0.0994625 9.54932e-05 0)
(0.0994346 8.4127e-05 0)
(0.0994108 7.24322e-05 0)
(0.0993909 6.02867e-05 0)
(0.099375 4.76171e-05 0)
(0.099363 3.43894e-05 0)
(0.0993547 2.06e-05 0)
(0.09935 6.2676e-06 0)
(0.099349 -8.57227e-06 0)
(0.0993515 -2.38703e-05 0)
(0.0993573 -3.95668e-05 0)
(0.0993665 -5.55889e-05 0)
(0.0993787 -7.18501e-05 0)
(0.0993939 -8.82502e-05 0)
(0.0994119 -0.000104672 0)
(0.0994325 -0.000120977 0)
(0.0994554 -0.00013701 0)
(0.0994803 -0.00015259 0)
(0.0995071 -0.000167509 0)
(0.0995353 -0.000181534 0)
(0.0995646 -0.000194399 0)
(0.0995946 -0.000205806 0)
(0.099625 -0.000215422 0)
(0.0996553 -0.000222875 0)
(0.099685 -0.000227749 0)
(0.0997135 -0.000229586 0)
(0.0997405 -0.000227872 0)
(0.0997651 -0.000222042 0)
(0.099787 -0.000211464 0)
(0.0998053 -0.000195438 0)
(0.0998194 -0.000173182 0)
(0.0998287 -0.000143824 0)
(0.0998323 -0.000106389 0)
(0.0998295 -5.9781e-05 0)
(0.0998195 -2.76832e-06 0)
(0.0998016 6.60267e-05 0)
(0.099775 0.000148165 0)
(0.0997388 0.000245419 0)
(0.0996925 0.000359796 0)
(0.0996354 0.000493577 0)
(0.099567 0.000649351 0)
(0.0994869 0.00083006 0)
(0.0993951 0.00103904 0)
(0.0992918 0.00128005 0)
(0.0991777 0.00155734 0)
(0.0990542 0.00187564 0)
(0.0989232 0.00224017 0)
(0.098788 0.0026566 0)
(0.098653 0.00313097 0)
(0.0985242 0.0036695 0)
(0.0984096 0.00427826 0)
(0.0983196 0.00496269 0)
(0.098267 0.00572691 0)
(0.0982674 0.00657264 0)
(0.098339 0.00749791 0)
(0.0985016 0.00849525 0)
(0.0987757 0.00954974 0)
(0.099179 0.0106371 0)
(0.0997231 0.0117223 0)
(0.100408 0.0127606 0)
(0.101216 0.0137018 0)
(0.100004 -3.69065e-05 0)
(0.100025 -6.34502e-05 0)
(0.100055 -7.31681e-05 0)
(0.100088 -6.41311e-05 0)
(0.100117 -3.65714e-05 0)
(0.100135 5.888e-06 0)
(0.10014 5.66184e-05 0)
(0.100129 0.000107684 0)
(0.100101 0.000152004 0)
(0.100059 0.00018497 0)
(0.100007 0.000204988 0)
(0.0999487 0.000213019 0)
(0.0998873 0.000211578 0)
(0.0998261 0.000203676 0)
(0.0997671 0.00019204 0)
(0.0997118 0.000178708 0)
(0.0996608 0.00016495 0)
(0.0996145 0.000151386 0)
(0.0995728 0.000138186 0)
(0.0995357 0.000125262 0)
(0.0995029 0.000112414 0)
(0.0994742 9.94257e-05 0)
(0.0994496 8.61156e-05 0)
(0.0994288 7.23509e-05 0)
(0.0994117 5.80507e-05 0)
(0.0993983 4.3177e-05 0)
(0.0993884 2.77258e-05 0)
(0.099382 1.17191e-05 0)
(0.0993788 -4.80184e-06 0)
(0.0993788 -2.17793e-05 0)
(0.0993819 -3.91427e-05 0)
(0.0993879 -5.68059e-05 0)
(0.0993967 -7.46678e-05 0)
(0.099408 -9.26101e-05 0)
(0.0994217 -0.000110496 0)
(0.0994376 -0.000128166 0)
(0.0994553 -0.000145441 0)
(0.0994747 -0.000162111 0)
(0.0994954 -0.000177941 0)
(0.0995171 -0.000192664 0)
(0.0995395 -0.00020598 0)
(0.0995622 -0.000217553 0)
(0.0995848 -0.00022701 0)
(0.0996068 -0.000233935 0)
(0.099628 -0.000237866 0)
(0.0996476 -0.000238295 0)
(0.0996654 -0.000234658 0)
(0.0996807 -0.000226334 0)
(0.0996929 -0.000212637 0)
(0.0997017 -0.000192807 0)
(0.0997062 -0.000166008 0)
(0.0997061 -0.00013131 0)
(0.0997007 -8.76821e-05 0)
(0.0996893 -3.39811e-05 0)
(0.0996715 3.106e-05 0)
(0.0996468 0.000108845 0)
(0.0996145 0.000200949 0)
(0.0995744 0.000309125 0)
(0.0995261 0.000435326 0)
(0.0994693 0.000581727 0)
(0.0994042 0.000750745 0)
(0.099331 0.000945055 0)
(0.0992502 0.00116761 0)
(0.0991628 0.00142163 0)
(0.0990703 0.00171061 0)
(0.0989747 0.0020383 0)
(0.0988789 0.00240861 0)
(0.0987867 0.00282552 0)
(0.0987031 0.00329297 0)
(0.0986343 0.00381456 0)
(0.0985877 0.00439327 0)
(0.0985727 0.00503103 0)
(0.0985998 0.00572813 0)
(0.098681 0.0064826 0)
(0.0988293 0.00728933 0)
(0.0990575 0.00813932 0)
(0.0993778 0.00901883 0)
(0.0997991 0.00990891 0)
(0.100326 0.0107856 0)
(0.100954 0.0116211 0)
(0.101672 0.0123869 0)
(0.100004 -4.20856e-05 0)
(0.100025 -7.28477e-05 0)
(0.100055 -8.48056e-05 0)
(0.100088 -7.58426e-05 0)
(0.100119 -4.60735e-05 0)
(0.100141 6.9372e-07 0)
(0.10015 5.72847e-05 0)
(0.100144 0.000114962 0)
(0.100123 0.000165778 0)
(0.100087 0.000204393 0)
(0.10004 0.000228747 0)
(0.0999857 0.000239635 0)
(0.0999275 0.000239653 0)
(0.0998685 0.00023205 0)
(0.0998109 0.000219851 0)
(0.0997563 0.000205382 0)
(0.0997056 0.000190149 0)
(0.0996592 0.000174939 0)
(0.0996173 0.000160031 0)
(0.0995797 0.000145394 0)
(0.0995464 0.000130852 0)
(0.0995171 0.000116197 0)
(0.0994916 0.000101241 0)
(0.0994699 8.58468e-05 0)
(0.0994517 6.99261e-05 0)
(0.0994369 5.34379e-05 0)
(0.0994254 3.63784e-05 0)
(0.099417 1.87729e-05 0)
(0.0994117 6.68607e-07 0)
(0.0994092 -1.78682e-05 0)
(0.0994094 -3.67526e-05 0)
(0.0994122 -5.58873e-05 0)
(0.0994173 -7.51541e-05 0)
(0.0994246 -9.44167e-05 0)
(0.0994339 -0.000113517 0)
(0.0994449 -0.000132274 0)
(0.0994573 -0.000150482 0)
(0.099471 -0.000167905 0)
(0.0994855 -0.00018428 0)
(0.0995006 -0.000199308 0)
(0.0995159 -0.000212656 0)
(0.0995312 -0.000223953 0)
(0.0995459 -0.000232787 0)
(0.0995598 -0.000238704 0)
(0.0995724 -0.000241202 0)
(0.0995833 -0.00023973 0)
(0.099592 -0.000233682 0)
(0.0995981 -0.000222395 0)
(0.0996011 -0.000205139 0)
(0.0996006 -0.000181117 0)
(0.0995962 -0.000149455 0)
(0.0995873 -0.000109191 0)
(0.0995736 -5.92739e-05 0)
(0.0995546 1.45077e-06 0)
(0.0995301 7.42371e-05 0)
(0.0994997 0.00016047 0)
(0.0994633 0.000261668 0)
(0.0994207 0.000379492 0)
(0.0993719 0.000515753 0)
(0.0993173 0.000672421 0)
(0.0992572 0.000851628 0)
(0.0991924 0.00105566 0)
(0.099124 0.00128697 0)
(0.0990533 0.00154811 0)
(0.0989824 0.00184173 0)
(0.0989137 0.00217052 0)
(0.0988506 0.00253707 0)
(0.0987968 0.00294383 0)
(0.0987573 0.00339285 0)
(0.0987376 0.00388566 0)
(0.0987443 0.00442293 0)
(0.0987849 0.00500422 0)
(0.0988674 0.00562757 0)
(0.0990002 0.00628916 0)
(0.0991919 0.00698291 0)
(0.0994504 0.0077002 0)
(0.099782 0.00842969 0)
(0.100191 0.00915739 0)
(0.100677 0.00986722 0)
(0.101237 0.010542 0)
(0.101862 0.0111652 0)
(0.100004 -4.75453e-05 0)
(0.100024 -8.28441e-05 0)
(0.100055 -9.73866e-05 0)
(0.100088 -8.88692e-05 0)
(0.100121 -5.72595e-05 0)
(0.100146 -6.47868e-06 0)
(0.100159 5.58386e-05 0)
(0.100158 0.00012021 0)
(0.100143 0.00017783 0)
(0.100113 0.000222587 0)
(0.100071 0.000251875 0)
(0.100021 0.000266236 0)
(0.0999669 0.000268271 0)
(0.0999105 0.000261418 0)
(0.0998547 0.000248984 0)
(0.0998011 0.000233587 0)
(0.099751 0.000216986 0)
(0.0997048 0.000200169 0)
(0.0996628 0.000183544 0)
(0.0996249 0.000167163 0)
(0.0995911 0.000150894 0)
(0.0995612 0.000134545 0)
(0.099535 0.000117934 0)
(0.0995123 0.00010092 0)
(0.0994929 8.34111e-05 0)
(0.0994767 6.53646e-05 0)
(0.0994634 4.67773e-05 0)
(0.0994531 2.76776e-05 0)
(0.0994454 8.12034e-06 0)
(0.0994403 -1.18195e-05 0)
(0.0994375 -3.20425e-05 0)
(0.0994369 -5.24394e-05 0)
(0.0994382 -7.28737e-05 0)
(0.0994414 -9.31901e-05 0)
(0.099446 -0.000113209 0)
(0.099452 -0.000132728 0)
(0.099459 -0.000151515 0)
(0.0994668 -0.00016931 0)
(0.099475 -0.000185819 0)
(0.0994834 -0.000200717 0)
(0.0994917 -0.000213639 0)
(0.0994994 -0.000224182 0)
(0.0995063 -0.000231904 0)
(0.0995121 -0.000236315 0)
(0.0995163 -0.000236883 0)
(0.0995185 -0.000233023 0)
(0.0995185 -0.000224099 0)
(0.0995158 -0.00020942 0)
(0.09951 -0.000188231 0)
(0.0995009 -0.000159717 0)
(0.0994882 -0.00012299 0)
(0.0994714 -7.70887e-05 0)
(0.0994504 -2.09721e-05 0)
(0.0994249 4.6475e-05 0)
(0.0993948 0.000126461 0)
(0.0993601 0.000220292 0)
(0.0993209 0.000329372 0)
(0.0992773 0.000455198 0)
(0.0992296 0.000599367 0)
(0.0991785 0.000763564 0)
(0.0991248 0.000949557 0)
(0.0990694 0.00115917 0)
(0.0990137 0.00139428 0)
(0.0989596 0.00165674 0)
(0.0989092 0.00194835 0)
(0.0988652 0.00227078 0)
(0.0988306 0.00262549 0)
(0.0988093 0.00301357 0)
(0.0988054 0.00343567 0)
(0.0988236 0.00389178 0)
(0.0988693 0.00438109 0)
(0.0989479 0.00490175 0)
(0.0990652 0.00545076 0)
(0.0992269 0.00602371 0)
(0.099438 0.00661474 0)
(0.0997029 0.00721646 0)
(0.100025 0.00782005 0)
(0.100405 0.00841549 0)
(0.100841 0.00899207 0)
(0.101332 0.00953906 0)
(0.101868 0.0100467 0)
(0.100004 -5.32816e-05 0)
(0.100024 -9.3429e-05 0)
(0.100054 -0.0001109 0)
(0.100088 -0.000103207 0)
(0.100121 -7.01452e-05 0)
(0.100149 -1.56806e-05 0)
(0.100166 5.21763e-05 0)
(0.10017 0.000123265 0)
(0.10016 0.000187944 0)
(0.100135 0.000239293 0)
(0.100099 0.000274094 0)
(0.100054 0.000292546 0)
(0.100003 0.00029718 0)
(0.09995 0.000291571 0)
(0.0998963 0.000279277 0)
(0.0998443 0.000263211 0)
(0.099795 0.000245404 0)
(0.0997492 0.000227061 0)
(0.0997073 0.000208754 0)
(0.0996693 0.000190636 0)
(0.0996351 0.000172639 0)
(0.0996046 0.000154601 0)
(0.0995776 0.000136353 0)
(0.0995538 0.000117758 0)
(0.0995332 9.87226e-05 0)
(0.0995154 7.92051e-05 0)
(0.0995003 5.92032e-05 0)
(0.0994878 3.87502e-05 0)
(0.0994776 1.79072e-05 0)
(0.0994697 -3.23995e-06 0)
(0.0994637 -2.45848e-05 0)
(0.0994595 -4.59909e-05 0)
(0.0994569 -6.7309e-05 0)
(0.0994556 -8.83646e-05 0)
(0.0994555 -0.000108961 0)
(0.0994563 -0.00012887 0)
(0.0994577 -0.000147839 0)
(0.0994594 -0.000165581 0)
(0.0994613 -0.000181778 0)
(0.0994629 -0.000196077 0)
(0.099464 -0.000208088 0)
(0.0994643 -0.000217383 0)
(0.0994635 -0.000223491 0)
(0.0994612 -0.0002259 0)
(0.0994572 -0.000224055 0)
(0.0994511 -0.000217352 0)
(0.0994427 -0.000205138 0)
(0.0994317 -0.000186708 0)
(0.0994178 -0.000161305 0)
(0.0994008 -0.000128116 0)
(0.0993805 -8.6273e-05 0)
(0.0993567 -3.484e-05 0)
(0.0993294 2.71688e-05 0)
(0.0992986 0.000100801 0)
(0.0992642 0.000187175 0)
(0.0992266 0.000287467 0)
(0.0991858 0.000402911 0)
(0.0991425 0.000534791 0)
(0.0990972 0.000684432 0)
(0.0990506 0.000853187 0)
(0.0990039 0.00104242 0)
(0.0989582 0.00125346 0)
(0.0989151 0.0014876 0)
(0.0988765 0.00174602 0)
(0.0988445 0.00202976 0)
(0.0988216 0.00233962 0)
(0.0988108 0.00267611 0)
(0.0988151 0.00303935 0)
(0.0988382 0.00342896 0)
(0.0988837 0.00384397 0)
(0.0989555 0.00428272 0)
(0.0990575 0.00474277 0)
(0.0991935 0.00522078 0)
(0.0993671 0.00571254 0)
(0.099581 0.00621293 0)
(0.0998374 0.00671601 0)
(0.100137 0.00721515 0)
(0.100481 0.00770328 0)
(0.100866 0.00817326 0)
(0.10129 0.00861829 0)
(0.101747 0.00903252 0)
(0.100003 -5.92839e-05 0)
(0.100023 -0.000104576 0)
(0.100053 -0.000125302 0)
(0.100087 -0.000118796 0)
(0.100121 -8.46651e-05 0)
(0.10015 -2.68577e-05 0)
(0.10017 4.6318e-05 0)
(0.100178 0.000124092 0)
(0.100173 0.000196017 0)
(0.100154 0.000254345 0)
(0.100123 0.000295187 0)
(0.100082 0.000318322 0)
(0.100036 0.000326136 0)
(0.0999853 0.000322282 0)
(0.0999341 0.000310545 0)
(0.0998838 0.000294119 0)
(0.0998357 0.000275318 0)
(0.0997906 0.000255589 0)
(0.099749 0.000235684 0)
(0.0997109 0.000215886 0)
(0.0996764 0.000196204 0)
(0.0996453 0.000176524 0)
(0.0996174 0.000156698 0)
(0.0995925 0.000136598 0)
(0.0995704 0.000116138 0)
(0.0995509 9.52767e-05 0)
(0.0995338 7.40147e-05 0)
(0.0995189 5.23903e-05 0)
(0.099506 3.04727e-05 0)
(0.099495 8.35871e-06 0)
(0.0994856 -1.38328e-05 0)
(0.0994776 -3.59495e-05 0)
(0.0994707 -5.7825e-05 0)
(0.0994649 -7.92661e-05 0)
(0.0994598 -0.000100055 0)
(0.0994551 -0.000119945 0)
(0.0994508 -0.000138659 0)
(0.0994464 -0.00015589 0)
(0.0994417 -0.000171298 0)
(0.0994365 -0.000184508 0)
(0.0994304 -0.000195111 0)
(0.0994233 -0.000202657 0)
(0.0994149 -0.00020666 0)
(0.0994048 -0.000206595 0)
(0.0993929 -0.000201892 0)
(0.0993789 -0.000191946 0)
(0.0993626 -0.0001761 0)
(0.0993439 -0.000153659 0)
(0.0993225 -0.000123884 0)
(0.0992984 -8.59893e-05 0)
(0.0992714 -3.91419e-05 0)
(0.0992417 1.75199e-05 0)
(0.0992092 8.49014e-05 0)
(0.0991741 0.000163953 0)
(0.0991366 0.000255658 0)
(0.0990971 0.000361025 0)
(0.0990561 0.000481082 0)
(0.099014 0.000616864 0)
(0.0989718 0.000769395 0)
(0.0989304 0.000939676 0)
(0.0988908 0.00112865 0)
(0.0988544 0.0013372 0)
(0.0988229 0.00156606 0)
(0.0987979 0.00181583 0)
(0.0987814 0.0020869 0)
(0.0987758 0.0023794 0)
(0.0987833 0.00269315 0)
(0.0988067 0.00302758 0)
(0.0988486 0.00338172 0)
(0.0989118 0.00375406 0)
(0.098999 0.0041426 0)
(0.0991128 0.00454475 0)
(0.0992556 0.00495735 0)
(0.0994292 0.0053767 0)
(0.0996352 0.0057986 0)
(0.0998743 0.00621844 0)
(0.100147 0.00663133 0)
(0.100451 0.00703234 0)
(0.100787 0.00741663 0)
(0.10115 0.00777983 0)