/*--------------------------------*- C++ -*----------------------------------*\
| =========                 |                                                 |
| \\      /  F ield         | OpenFOAM: The Open Source CFD Toolbox           |
|  \\    /   O peration     | Version:  2106                                  |
|   \\  /    A nd           | Website:  www.openfoam.com                      |
|    \\/     M anipulation  |                                                 |
\*---------------------------------------------------------------------------*/
FoamFile
{
    version     2.0;
    format      ascii;
    arch        "LSB;label=32;scalar=64";
    class       surfaceScalarField;
    location    "7.6";
    object      phi;
}
// * * * * * * * * * * * * * * * * * * * * * * * * * * * * * * * * * * * * * //

dimensions      [1 0 -1 0 0 0 0];

oriented        oriented;

internalField   nonuniform List<scalar> 
23692
(
9.3185e-05
-1.05557e-07
9.33761e-05
-1.91062e-07
9.36433e-05
-2.6724e-07
9.39777e-05
-3.34336e-07
9.43722e-05
-3.9445e-07
9.48211e-05
-4.48848e-07
9.53195e-05
-4.98375e-07
9.58632e-05
-5.4371e-07
9.64487e-05
-5.85371e-07
9.70725e-05
-6.23776e-07
9.77318e-05
-6.59266e-07
9.8424e-05
-6.92122e-07
9.91467e-05
-7.22579e-07
9.98976e-05
-7.50836e-07
0.000100675
-7.77063e-07
0.000101476
-8.01398e-07
0.0001023
-8.23969e-07
0.000103145
-8.44881e-07
0.00010401
-8.64225e-07
0.000104892
-8.82084e-07
0.00010579
-8.98524e-07
0.000106704
-9.13607e-07
0.000107632
-9.27384e-07
0.000108572
-9.39904e-07
0.000109523
-9.51206e-07
0.000110484
-9.61327e-07
0.000111455
-9.70297e-07
0.000112433
-9.78144e-07
0.000113418
-9.8489e-07
0.000114409
-9.90555e-07
0.000115404
-9.95159e-07
0.000116403
-9.98715e-07
0.000117404
-1.00123e-06
0.000118407
-1.00272e-06
0.00011941
-1.00319e-06
0.000120413
-1.00264e-06
0.000121414
-1.00107e-06
0.000122413
-9.98483e-07
0.000123408
-9.94867e-07
0.000124398
-9.90216e-07
0.000125383
-9.84516e-07
0.00012636
-9.77749e-07
0.00012733
-9.69895e-07
0.000128291
-9.60924e-07
0.000129242
-9.50806e-07
0.000130182
-9.395e-07
0.000131109
-9.26958e-07
0.000132022
-9.13124e-07
0.00013292
-8.97929e-07
0.000133801
-8.81296e-07
0.000134665
-8.63129e-07
0.000135508
-8.43318e-07
0.00013633
-8.21732e-07
0.000137128
-7.98216e-07
0.000137901
-7.72584e-07
0.000138645
-7.44617e-07
0.000139359
-7.14052e-07
0.00014004
-6.8057e-07
0.000140684
-6.43791e-07
0.000141287
-6.03244e-07
0.000141845
-5.58358e-07
0.000142354
-5.08423e-07
0.000142806
-4.52554e-07
0.000143196
-3.89634e-07
0.000143514
-3.18241e-07
0.000143751
-2.36535e-07
0.000143893
-1.42111e-07
0.000143925
-3.17813e-08
0.000143826
9.88152e-08
0.00014357
2.55764e-07
0.000143122
4.47722e-07
0.000142435
6.87285e-07
0.000141442
9.93296e-07
0.000140047
1.39478e-06
0.000138109
1.93781e-06
0.000135412
2.69764e-06
0.000131611
3.80023e-06
0.000126149
5.46262e-06
0.000118062
8.08681e-06
0.000105559
1.25028e-05
2.1109e-05
8.445e-05
9.97091e-05
-2.15702e-07
9.99124e-05
-3.94352e-07
0.000100197
-5.52276e-07
0.000100554
-6.91136e-07
0.000100975
-8.15584e-07
0.000101455
-9.28189e-07
0.000101987
-1.0307e-06
0.000102568
-1.12452e-06
0.000103194
-1.21074e-06
0.00010386
-1.29021e-06
0.000104564
-1.36365e-06
0.000105304
-1.43163e-06
0.000106076
-1.49464e-06
0.000106879
-1.5531e-06
0.000107709
-1.60735e-06
0.000108565
-1.65769e-06
0.000109446
-1.70438e-06
0.000110349
-1.74762e-06
0.000111272
-1.78763e-06
0.000112215
-1.82455e-06
0.000113175
-1.85854e-06
0.000114151
-1.88972e-06
0.000115142
-1.91819e-06
0.000116146
-1.94406e-06
0.000117163
-1.96741e-06
0.00011819
-1.98831e-06
0.000119226
-2.00683e-06
0.000120271
-2.02303e-06
0.000121324
-2.03694e-06
0.000122382
-2.04862e-06
0.000123445
-2.0581e-06
0.000124512
-2.06541e-06
0.000125581
-2.07057e-06
0.000126652
-2.0736e-06
0.000127724
-2.07452e-06
0.000128794
-2.07333e-06
0.000129863
-2.07003e-06
0.00013093
-2.06462e-06
0.000131992
-2.05709e-06
0.000133049
-2.04741e-06
0.0001341
-2.03556e-06
0.000135144
-2.02151e-06
0.00013618
-2.00521e-06
0.000137205
-1.9866e-06
0.00013822
-1.96562e-06
0.000139223
-1.94218e-06
0.000140212
-1.91619e-06
0.000141187
-1.88754e-06
0.000142145
-1.85608e-06
0.000143085
-1.82165e-06
0.000144006
-1.78406e-06
0.000144906
-1.74308e-06
0.000145783
-1.69845e-06
0.000146635
-1.64985e-06
0.000147459
-1.59691e-06
0.000148254
-1.53917e-06
0.000149016
-1.4761e-06
0.000149742
-1.40707e-06
0.00015043
-1.3313e-06
0.000151074
-1.24783e-06
0.000151672
-1.15553e-06
0.000152216
-1.05298e-06
0.000152702
-9.38393e-07
0.000153122
-8.09563e-07
0.000153467
-6.63672e-07
0.000153728
-4.97105e-07
0.000153891
-3.05164e-07
0.000153941
-8.1667e-08
0.000153858
1.81677e-07
0.000153618
4.96279e-07
0.000153187
8.78097e-07
0.000152525
1.34981e-06
0.000151574
1.94434e-06
0.000150258
2.71049e-06
0.000148474
3.72199e-06
0.00014608
5.09169e-06
0.000142887
6.99236e-06
0.000138665
9.68478e-06
0.000133196
1.35559e-05
0.000126612
1.90868e-05
2.61203e-05
0.000121601
0.000106689
-3.29768e-07
0.000106904
-6.09594e-07
0.000107207
-8.54893e-07
0.000107587
-1.07071e-06
0.000108035
-1.26405e-06
0.000108546
-1.43895e-06
0.000109113
-1.59813e-06
0.000109733
-1.74381e-06
0.0001104
-1.87766e-06
0.000111111
-2.00102e-06
0.000111862
-2.115e-06
0.000112651
-2.2205e-06
0.000113475
-2.31828e-06
0.000114331
-2.40898e-06
0.000115217
-2.49314e-06
0.00011613
-2.57123e-06
0.00011707
-2.64363e-06
0.000118033
-2.71069e-06
0.000119018
-2.77271e-06
0.000120024
-2.82995e-06
0.000121048
-2.88262e-06
0.000122089
-2.93092e-06
0.000123146
-2.97503e-06
0.000124217
-3.01508e-06
0.000125301
-3.05123e-06
0.000126396
-3.08356e-06
0.000127502
-3.1122e-06
0.000128616
-3.13722e-06
0.000129738
-3.1587e-06
0.000130866
-3.1767e-06
0.000132
-3.19129e-06
0.000133137
-3.2025e-06
0.000134277
-3.21038e-06
0.000135418
-3.21496e-06
0.00013656
-3.21625e-06
0.000137701
-3.21426e-06
0.00013884
-3.209e-06
0.000139976
-3.20046e-06
0.000141108
-3.18863e-06
0.000142234
-3.17346e-06
0.000143353
-3.15494e-06
0.000144465
-3.13299e-06
0.000145568
-3.10755e-06
0.00014666
-3.07854e-06
0.00014774
-3.04586e-06
0.000148807
-3.00937e-06
0.00014986
-2.96894e-06
0.000150897
-2.92438e-06
0.000151916
-2.87549e-06
0.000152917
-2.82201e-06
0.000153896
-2.76366e-06
0.000154853
-2.70009e-06
0.000155786
-2.6309e-06
0.000156692
-2.55561e-06
0.000157569
-2.47366e-06
0.000158414
-2.38436e-06
0.000159225
-2.28692e-06
0.000159998
-2.18037e-06
0.00016073
-2.06356e-06
0.000161418
-1.93509e-06
0.000162055
-1.79324e-06
0.000162638
-1.63593e-06
0.00016316
-1.46056e-06
0.000163615
-1.26391e-06
0.000163993
-1.04192e-06
0.000164285
-7.894e-07
0.00016448
-4.99729e-07
0.000164563
-1.64282e-07
0.000164516
2.28236e-07
0.000164319
6.92975e-07
0.000163947
1.25057e-06
0.000163367
1.92937e-06
0.000162543
2.7687e-06
0.00016143
3.82374e-06
0.00015998
5.17208e-06
0.000158149
6.92204e-06
0.000155921
9.22036e-06
0.000153354
1.22515e-05
0.000150705
1.62055e-05
0.00014868
2.11116e-05
2.62445e-05
0.000148556
0.000114157
-4.47458e-07
0.000114384
-8.36229e-07
0.000114704
-1.1749e-06
0.000115107
-1.4732e-06
0.000115583
-1.74032e-06
0.000116126
-1.98186e-06
0.00011673
-2.20167e-06
0.000117389
-2.40277e-06
0.000118098
-2.58751e-06
0.000118855
-2.75776e-06
0.000119655
-2.91502e-06
0.000120496
-3.06057e-06
0.000121373
-3.19544e-06
0.000122284
-3.32052e-06
0.000123228
-3.43656e-06
0.000124201
-3.5442e-06
0.000125202
-3.64399e-06
0.000126227
-3.7364e-06
0.000127277
-3.82184e-06
0.000128347
-3.90066e-06
0.000129438
-3.97318e-06
0.000130547
-4.03965e-06
0.000131672
-4.10033e-06
0.000132813
-4.15541e-06
0.000133967
-4.20508e-06
0.000135133
-4.24949e-06
0.00013631
-4.28878e-06
0.000137496
-4.32308e-06
0.00013869
-4.35249e-06
0.00013989
-4.37709e-06
0.000141096
-4.39698e-06
0.000142306
-4.4122e-06
0.000143518
-4.42282e-06
0.000144732
-4.42887e-06
0.000145947
-4.43038e-06
0.00014716
-4.42737e-06
0.000148371
-4.41985e-06
0.000149578
-4.40779e-06
0.000150781
-4.39119e-06
0.000151978
-4.37e-06
0.000153167
-4.34417e-06
0.000154348
-4.31363e-06
0.000155519
-4.27828e-06
0.000156678
-4.23802e-06
0.000157825
-4.1927e-06
0.000158958
-4.14216e-06
0.000160075
-4.08619e-06
0.000161175
-4.02457e-06
0.000162257
-3.957e-06
0.000163318
-3.88316e-06
0.000164357
-3.80266e-06
0.000165372
-3.71504e-06
0.000166361
-3.61977e-06
0.000167322
-3.5162e-06
0.000168252
-3.40358e-06
0.000169149
-3.28104e-06
0.000170009
-3.1475e-06
0.000170831
-3.00171e-06
0.000171609
-2.84216e-06
0.000172341
-2.66704e-06
0.000173022
-2.47415e-06
0.000173647
-2.2608e-06
0.00017421
-2.02371e-06
0.000174705
-1.75884e-06
0.000175124
-1.46114e-06
0.000175459
-1.12428e-06
0.0001757
-7.4028e-07
0.000175835
-2.98967e-07
0.00017585
2.12624e-07
0.000175732
8.11243e-07
0.000175464
1.51891e-06
0.000175028
2.36453e-06
0.000174411
3.38605e-06
0.000173602
4.63299e-06
0.000172605
6.16906e-06
0.000171453
8.07337e-06
0.000170237
1.04369e-05
0.000169143
1.33456e-05
0.000168516
1.68321e-05
0.000168877
2.07502e-05
2.45092e-05
0.000170613
0.000122148
-5.68639e-07
0.000122386
-1.07379e-06
0.000122723
-1.51202e-06
0.000123149
-1.89858e-06
0.000123653
-2.24465e-06
0.000124229
-2.55748e-06
0.000124869
-2.84209e-06
0.000125569
-3.10242e-06
0.000126323
-3.34151e-06
0.000127127
-3.5618e-06
0.000127977
-3.76524e-06
0.00012887
-3.95348e-06
0.000129803
-4.12788e-06
0.000130772
-4.28958e-06
0.000131775
-4.43956e-06
0.00013281
-4.57865e-06
0.000133873
-4.70755e-06
0.000134964
-4.82688e-06
0.00013608
-4.93718e-06
0.000137218
-5.03889e-06
0.000138377
-5.13243e-06
0.000139556
-5.21815e-06
0.000140752
-5.29634e-06
0.000141964
-5.36727e-06
0.00014319
-5.43119e-06
0.000144429
-5.48829e-06
0.000145679
-5.53876e-06
0.000146939
-5.58275e-06
0.000148207
-5.62041e-06
0.000149482
-5.65184e-06
0.000150763
-5.67716e-06
0.000152047
-5.69643e-06
0.000153334
-5.70974e-06
0.000154622
-5.71714e-06
0.000155911
-5.71866e-06
0.000157198
-5.71433e-06
0.000158482
-5.70415e-06
0.000159763
-5.68812e-06
0.000161038
-5.6662e-06
0.000162306
-5.63835e-06
0.000163567
-5.60452e-06
0.000164818
-5.56459e-06
0.000166058
-5.51847e-06
0.000167286
-5.46602e-06
0.000168501
-5.40705e-06
0.0001697
-5.34136e-06
0.000170883
-5.26871e-06
0.000172047
-5.18879e-06
0.000173191
-5.10127e-06
0.000174314
-5.00572e-06
0.000175413
-4.90167e-06
0.000176487
-4.78856e-06
0.000177533
-4.66572e-06
0.000178549
-4.53236e-06
0.000179533
-4.38758e-06
0.000180482
-4.23029e-06
0.000181394
-4.05922e-06
0.000182265
-3.87284e-06
0.000183092
-3.66936e-06
0.000183872
-3.44661e-06
0.0001846
-3.20202e-06
0.000185271
-2.93247e-06
0.000185882
-2.63418e-06
0.000186426
-2.30255e-06
0.000186897
-1.93194e-06
0.000187288
-1.51544e-06
0.000187592
-1.04446e-06
0.000187801
-5.08382e-07
0.000187908
1.05915e-07
0.000187905
8.14622e-07
0.000187786
1.63789e-06
0.000187549
2.60095e-06
0.000187201
3.73462e-06
0.000186758
5.07571e-06
0.00018626
6.66643e-06
0.000185782
8.55141e-06
0.00018545
1.07697e-05
0.000185458
1.33371e-05
0.00018608
1.62103e-05
0.000187608
1.92223e-05
2.19882e-05
0.000190129
0.000130699
-6.933e-07
0.000130947
-1.32192e-06
0.000131301
-1.86601e-06
0.000131749
-2.34675e-06
0.000132282
-2.77719e-06
0.00013289
-3.16618e-06
0.000133568
-3.52001e-06
0.00013431
-3.84357e-06
0.000135109
-4.14066e-06
0.000135961
-4.4143e-06
0.000136863
-4.66697e-06
0.000137811
-4.90069e-06
0.0001388
-5.11717e-06
0.000139828
-5.31783e-06
0.000140893
-5.50388e-06
0.000141991
-5.67636e-06
0.000143119
-5.83616e-06
0.000144277
-5.98405e-06
0.00014546
-6.12067e-06
0.000146668
-6.24661e-06
0.000147898
-6.36237e-06
0.000149149
-6.46838e-06
0.000150418
-6.56503e-06
0.000151703
-6.65264e-06
0.000153004
-6.73151e-06
0.000154317
-6.80189e-06
0.000155643
-6.86402e-06
0.000156978
-6.91809e-06
0.000158322
-6.96427e-06
0.000159673
-7.00271e-06
0.00016103
-7.03353e-06
0.00016239
-7.05684e-06
0.000163753
-7.07274e-06
0.000165118
-7.08127e-06
0.000166482
-7.08251e-06
0.000167844
-7.07647e-06
0.000169203
-7.06318e-06
0.000170558
-7.04261e-06
0.000171907
-7.01475e-06
0.000173248
-6.97953e-06
0.00017458
-6.93689e-06
0.000175903
-6.88672e-06
0.000177213
-6.82889e-06
0.00017851
-6.76323e-06
0.000179793
-6.68953e-06
0.000181059
-6.60756e-06
0.000182308
-6.51702e-06
0.000183537
-6.41756e-06
0.000184744
-6.30877e-06
0.000185929
-6.19018e-06
0.000187088
-6.06122e-06
0.000188221
-5.92124e-06
0.000189325
-5.76946e-06
0.000190397
-5.60498e-06
0.000191437
-5.42675e-06
0.00019244
-5.23354e-06
0.000193405
-5.02389e-06
0.000194328
-4.7961e-06
0.000195207
-4.54815e-06
0.000196038
-4.27766e-06
0.000196818
-3.98181e-06
0.000197543
-3.65723e-06
0.000198208
-3.29991e-06
0.000198811
-2.90505e-06
0.000199346
-2.46691e-06
0.000199809
-1.97855e-06
0.000200196
-1.43168e-06
0.000200504
-8.1631e-07
0.000200731
-1.20578e-07
0.000200876
6.6943e-07
0.000200944
1.56965e-06
0.000200946
2.59897e-06
0.000200902
3.77845e-06
0.000200847
5.13034e-06
0.000200838
6.67604e-06
0.000200957
8.43191e-06
0.000201325
1.0402e-05
0.000202097
1.25656e-05
0.000203449
1.48582e-05
0.000205526
1.7145e-05
1.91984e-05
0.000208316
0.000139848
-8.21537e-07
0.000140106
-1.58034e-06
0.000140477
-2.23662e-06
0.000140948
-2.81753e-06
0.000141508
-3.33792e-06
0.00014215
-3.80816e-06
0.000142866
-4.23583e-06
0.00014365
-4.62681e-06
0.000144495
-4.98572e-06
0.000145397
-5.31622e-06
0.000146351
-5.62129e-06
0.000147354
-5.90339e-06
0.000148402
-6.1646e-06
0.000149491
-6.40665e-06
0.000150618
-6.63099e-06
0.000151781
-6.83889e-06
0.000152976
-7.03143e-06
0.000154202
-7.20953e-06
0.000155455
-7.37398e-06
0.000156734
-7.5255e-06
0.000158037
-7.66468e-06
0.00015936
-7.79206e-06
0.000160704
-7.90808e-06
0.000162064
-8.01317e-06
0.000163441
-8.10767e-06
0.000164831
-8.1919e-06
0.000166233
-8.26614e-06
0.000167646
-8.33061e-06
0.000169067
-8.38554e-06
0.000170496
-8.4311e-06
0.00017193
-8.46745e-06
0.000173368
-8.49471e-06
0.000174808
-8.513e-06
0.00017625
-8.52241e-06
0.00017769
-8.52299e-06
0.000179129
-8.51479e-06
0.000180563
-8.49783e-06
0.000181993
-8.4721e-06
0.000183416
-8.43758e-06
0.000184831
-8.39421e-06
0.000186236
-8.3419e-06
0.00018763
-8.28054e-06
0.000189011
-8.20999e-06
0.000190378
-8.13005e-06
0.000191729
-8.0405e-06
0.000193063
-7.94107e-06
0.000194377
-7.83142e-06
0.000195671
-7.71116e-06
0.000196942
-7.57984e-06
0.000198189
-7.43693e-06
0.00019941
-7.28179e-06
0.000200602
-7.11369e-06
0.000201765
-6.9318e-06
0.000202895
-6.73511e-06
0.000203991
-6.52249e-06
0.00020505
-6.29259e-06
0.00020607
-6.04386e-06
0.000207048
-5.77449e-06
0.000207982
-5.48235e-06
0.00020887
-5.16499e-06
0.000209707
-4.81952e-06
0.000210493
-4.44256e-06
0.000211223
-4.03015e-06
0.000211896
-3.57768e-06
0.000212509
-3.07975e-06
0.00021306
-2.53006e-06
0.00021355
-1.92133e-06
0.000213979
-1.24515e-06
0.00021435
-4.91997e-07
0.000214671
3.4875e-07
0.000214952
1.28792e-06
0.000215214
2.33702e-06
0.000215485
3.50746e-06
0.000215807
4.80881e-06
0.000216236
6.24659e-06
0.000216849
7.8189e-06
0.00021774
9.51147e-06
0.000219014
1.12912e-05
0.000220774
1.30981e-05
0.000223081
1.48382e-05
1.63835e-05
0.000225896
0.000149637
-9.53513e-07
0.000149906
-1.84889e-06
0.000150293
-2.62367e-06
0.000150786
-3.31076e-06
0.000151375
-3.92678e-06
0.000152051
-4.48349e-06
0.000152805
-4.98977e-06
0.00015363
-5.45254e-06
0.000154522
-5.87724e-06
0.000155474
-6.26821e-06
0.000156482
-6.62899e-06
0.000157541
-6.96251e-06
0.000158648
-7.27121e-06
0.000159799
-7.55714e-06
0.00016099
-7.82207e-06
0.000162218
-8.06747e-06
0.000163482
-8.29462e-06
0.000164777
-8.50463e-06
0.000166102
-8.69845e-06
0.000167453
-8.87691e-06
0.000168829
-9.04072e-06
0.000170228
-9.19051e-06
0.000171647
-9.32684e-06
0.000173084
-9.45018e-06
0.000174538
-9.56097e-06
0.000176006
-9.65956e-06
0.000177486
-9.7463e-06
0.000178977
-9.82147e-06
0.000180477
-9.88531e-06
0.000181984
-9.93805e-06
0.000183497
-9.97987e-06
0.000185013
-1.00109e-05
0.000186532
-1.00314e-05
0.000188051
-1.00413e-05
0.000189569
-1.00408e-05
0.000191084
-1.00299e-05
0.000192595
-1.00086e-05
0.0001941
-9.97703e-06
0.000195597
-9.93506e-06
0.000197086
-9.88267e-06
0.000198564
-9.81976e-06
0.00020003
-9.74622e-06
0.000201482
-9.66189e-06
0.000202919
-9.56658e-06
0.000204338
-9.46003e-06
0.000205739
-9.34195e-06
0.00020712
-9.21199e-06
0.000208479
-9.06973e-06
0.000209813
-8.91468e-06
0.000211123
-8.74627e-06
0.000212405
-8.56384e-06
0.000213658
-8.3666e-06
0.00021488
-8.15368e-06
0.000216069
-7.92404e-06
0.000217223
-7.67649e-06
0.00021834
-7.40966e-06
0.000219418
-7.12198e-06
0.000220456
-6.81163e-06
0.00022145
-6.47651e-06
0.000222399
-6.11424e-06
0.000223302
-5.72205e-06
0.000224156
-5.29681e-06
0.000224961
-4.8349e-06
0.000225715
-4.33225e-06
0.00022642
-3.78423e-06
0.000227075
-3.18569e-06
0.000227685
-2.53089e-06
0.000228253
-1.81361e-06
0.000228789
-1.02724e-06
0.000229302
-1.64886e-07
0.00022981
7.79737e-07
0.000230336
1.81114e-06
0.000230911
2.9328e-06
0.000231575
4.14519e-06
0.000232377
5.44396e-06
0.000233378
6.81786e-06
0.000234643
8.24623e-06
0.000236238
9.69642e-06
0.000238215
1.11217e-05
0.000240592
1.2461e-05
1.36443e-05
0.000243331
0.000160112
-1.08942e-06
0.000160391
-2.12744e-06
0.000160794
-3.02701e-06
0.00016131
-3.82623e-06
0.000161927
-4.54359e-06
0.000162635
-5.1921e-06
0.000163428
-5.78188e-06
0.000164296
-6.32091e-06
0.000165234
-6.8155e-06
0.000166237
-7.2707e-06
0.000167299
-7.69061e-06
0.000168415
-8.07865e-06
0.000169582
-8.43768e-06
0.000170795
-8.7701e-06
0.000172051
-9.07795e-06
0.000173347
-9.36298e-06
0.000174679
-9.62667e-06
0.000176045
-9.87031e-06
0.000177441
-1.0095e-05
0.000178866
-1.03018e-05
0.000180317
-1.04914e-05
0.000181792
-1.06647e-05
0.000183287
-1.08222e-05
0.000184802
-1.09646e-05
0.000186333
-1.10922e-05
0.00018788
-1.12057e-05
0.000189439
-1.13053e-05
0.000191009
-1.13913e-05
0.000192588
-1.14642e-05
0.000194174
-1.15241e-05
0.000195766
-1.15713e-05
0.000197361
-1.16059e-05
0.000198958
-1.16282e-05
0.000200555
-1.16382e-05
0.000202151
-1.16361e-05
0.000203743
-1.16219e-05
0.00020533
-1.15956e-05
0.00020691
-1.15574e-05
0.000208483
-1.15071e-05
0.000210045
-1.14448e-05
0.000211596
-1.13703e-05
0.000213133
-1.12836e-05
0.000214656
-1.11844e-05
0.000216162
-1.10726e-05
0.00021765
-1.09479e-05
0.000219118
-1.081e-05
0.000220565
-1.06586e-05
0.000221988
-1.04932e-05
0.000223387
-1.03134e-05
0.00022476
-1.01185e-05
0.000226104
-9.90786e-06
0.000227418
-9.68073e-06
0.0002287
-9.43622e-06
0.00022995
-9.17329e-06
0.000231164
-8.89079e-06
0.000232342
-8.5874e-06
0.000233482
-8.2616e-06
0.000234582
-7.91168e-06
0.000235641
-7.53573e-06
0.000236658
-7.13158e-06
0.000237633
-6.69679e-06
0.000238565
-6.22866e-06
0.000239454
-5.7242e-06
0.000240302
-5.18015e-06
0.000241111
-4.59297e-06
0.000241884
-3.95892e-06
0.000242628
-3.27415e-06
0.000243349
-2.5348e-06
0.000244059
-1.73723e-06
0.000244772
-8.78246e-07
0.000245507
4.46853e-08
0.000246287
1.03181e-06
0.000247139
2.0802e-06
0.000248099
3.18498e-06
0.000249206
4.33696e-06
0.000250502
5.52185e-06
0.000252029
6.71929e-06
0.000253823
7.90229e-06
0.000255907
9.03756e-06
0.000258281
1.00872e-05
1.10129e-05
0.000260913
0.000171321
-1.22945e-06
0.00017161
-2.41594e-06
0.000172029
-3.44651e-06
0.000172567
-4.36377e-06
0.000173211
-5.18816e-06
0.000173953
-5.9338e-06
0.000174783
-6.61203e-06
0.000175694
-7.2319e-06
0.00017668
-7.80057e-06
0.000177733
-8.32381e-06
0.000178849
-8.80635e-06
0.000180022
-9.25211e-06
0.000181249
-9.66438e-06
0.000182525
-1.00459e-05
0.000183846
-1.03991e-05
0.00018521
-1.07259e-05
0.000186611
-1.10281e-05
0.000188048
-1.13071e-05
0.000189517
-1.15643e-05
0.000191017
-1.18007e-05
0.000192543
-1.20173e-05
0.000194093
-1.22151e-05
0.000195666
-1.23946e-05
0.000197258
-1.25567e-05
0.000198868
-1.27018e-05
0.000200493
-1.28306e-05
0.000202131
-1.29433e-05
0.000203781
-1.30405e-05
0.000205439
-1.31224e-05
0.000207105
-1.31894e-05
0.000208775
-1.32418e-05
0.000210449
-1.32797e-05
0.000212124
-1.33033e-05
0.000213799
-1.33129e-05
0.000215472
-1.33086e-05
0.000217141
-1.32904e-05
0.000218804
-1.32584e-05
0.000220459
-1.32127e-05
0.000222106
-1.31533e-05
0.000223741
-1.308e-05
0.000225364
-1.2993e-05
0.000226972
-1.2892e-05
0.000228565
-1.27768e-05
0.00023014
-1.26475e-05
0.000231696
-1.25035e-05
0.000233231
-1.23448e-05
0.000234743
-1.21709e-05
0.000236232
-1.19815e-05
0.000237694
-1.17759e-05
0.00023913
-1.15538e-05
0.000240536
-1.13143e-05
0.000241913
-1.10569e-05
0.000243257
-1.07806e-05
0.000244568
-1.04846e-05
0.000245845
-1.01677e-05
0.000247087
-9.82872e-06
0.000248292
-9.46637e-06
0.000249459
-9.07915e-06
0.000250589
-8.66541e-06
0.000251681
-8.22337e-06
0.000252735
-7.75107e-06
0.000253753
-7.24644e-06
0.000254736
-6.70727e-06
0.000255687
-6.1313e-06
0.00025661
-5.51621e-06
0.000257511
-4.85982e-06
0.000258397
-4.1601e-06
0.000259278
-3.41543e-06
0.000260166
-2.62479e-06
0.000261075
-1.78796e-06
0.000262026
-9.05785e-07
0.000263038
1.9769e-08
0.000264135
9.83381e-07
0.000265343
1.97672e-06
0.000266691
2.98914e-06
0.000268206
4.00687e-06
0.000269912
5.01274e-06
0.000271828
5.98652e-06
0.00027396
6.90574e-06
0.000276299
7.74736e-06
8.49069e-06
0.000278822
0.000183314
-1.37379e-06
0.000183613
-2.71432e-06
0.000184048
-3.882e-06
0.000184608
-4.92312e-06
0.00018528
-5.86016e-06
0.000186054
-6.70829e-06
0.000186922
-7.47995e-06
0.000187876
-8.18524e-06
0.000188908
-8.83222e-06
0.000190011
-9.42739e-06
0.000191181
-9.97611e-06
0.000192412
-1.04828e-05
0.000193699
-1.09513e-05
0.000195038
-1.13846e-05
0.000196425
-1.17855e-05
0.000197855
-1.21563e-05
0.000199326
-1.24989e-05
0.000200834
-1.2815e-05
0.000202376
-1.31061e-05
0.000203949
-1.33736e-05
0.000205551
-1.36184e-05
0.000207177
-1.38416e-05
0.000208827
-1.40441e-05
0.000210497
-1.42265e-05
0.000212185
-1.43896e-05
0.000213889
-1.4534e-05
0.000215606
-1.46601e-05
0.000217334
-1.47684e-05
0.000219071
-1.48594e-05
0.000220815
-1.49334e-05
0.000222564
-1.49906e-05
0.000224316
-1.50314e-05
0.000226069
-1.50561e-05
0.000227821
-1.50647e-05
0.00022957
-1.50575e-05
0.000231315
-1.50346e-05
0.000233053
-1.49961e-05
0.000234782
-1.4942e-05
0.000236501
-1.48724e-05
0.000238209
-1.47873e-05
0.000239903
-1.46867e-05
0.000241581
-1.45704e-05
0.000243243
-1.44383e-05
0.000244886
-1.42903e-05
0.000246509
-1.41261e-05
0.00024811
-1.39456e-05
0.000249687
-1.37483e-05
0.00025124
-1.3534e-05
0.000252766
-1.33021e-05
0.000254265
-1.30522e-05
0.000255734
-1.27837e-05
0.000257173
-1.2496e-05
0.000258581
-1.21883e-05
0.000259956
-1.18598e-05
0.000261298
-1.15096e-05
0.000262606
-1.11367e-05
0.00026388
-1.07401e-05
0.00026512
-1.03185e-05
0.000266325
-9.87081e-06
0.000267497
-9.39561e-06
0.000268638
-8.8916e-06
0.000269749
-8.3574e-06
0.000270834
-7.7917e-06
0.000271895
-7.19324e-06
0.00027294
-6.56099e-06
0.000273975
-5.89415e-06
0.000275007
-5.19235e-06
0.000276047
-4.4558e-06
0.000277108
-3.68542e-06
0.000278203
-2.88312e-06
0.000279349
-2.05188e-06
0.000280565
-1.19589e-06
0.000281869
-3.20276e-07
0.000283278
5.6681e-07
0.000284812
1.45507e-06
0.000286487
2.33211e-06
0.000288315
3.18466e-06
0.000290303
3.99847e-06
0.00029245
4.75883e-06
0.000294746
5.452e-06
6.06698e-06
0.000297169
0.000196148
-1.52255e-06
0.000196456
-3.02252e-06
0.000196907
-4.33328e-06
0.000197488
-5.50399e-06
0.000198187
-6.55921e-06
0.000198994
-7.5151e-06
0.000199899
-8.38512e-06
0.000200895
-9.18042e-06
0.000201972
-9.90993e-06
0.000203126
-1.05809e-05
0.00020435
-1.11994e-05
0.000205637
-1.17703e-05
0.000206984
-1.22979e-05
0.000208385
-1.27857e-05
0.000209837
-1.32367e-05
0.000211334
-1.36536e-05
0.000212874
-1.40385e-05
0.000214453
-1.43935e-05
0.000216067
-1.47201e-05
0.000217713
-1.50198e-05
0.000219389
-1.5294e-05
0.000221091
-1.55436e-05
0.000222817
-1.57697e-05
0.000224564
-1.59731e-05
0.00022633
-1.61547e-05
0.000228111
-1.6315e-05
0.000229906
-1.64546e-05
0.000231712
-1.65742e-05
0.000233527
-1.66741e-05
0.000235348
-1.67548e-05
0.000237174
-1.68167e-05
0.000239003
-1.686e-05
0.000240832
-1.6885e-05
0.00024266
-1.6892e-05
0.000244484
-1.68813e-05
0.000246302
-1.68529e-05
0.000248113
-1.6807e-05
0.000249915
-1.67436e-05
0.000251706
-1.6663e-05
0.000253484
-1.65651e-05
0.000255247
-1.64498e-05
0.000256994
-1.63172e-05
0.000258724
-1.61672e-05
0.000260433
-1.59997e-05
0.000262122
-1.58144e-05
0.000263787
-1.56113e-05
0.000265429
-1.539e-05
0.000267046
-1.51502e-05
0.000268635
-1.48916e-05
0.000270197
-1.46138e-05
0.00027173
-1.43164e-05
0.000273233
-1.39987e-05
0.000274705
-1.36603e-05
0.000276146
-1.33006e-05
0.000277555
-1.29188e-05
0.000278933
-1.25142e-05
0.000280279
-1.20862e-05
0.000281594
-1.16339e-05
0.00028288
-1.11566e-05
0.000284138
-1.06534e-05
0.00028537
-1.01238e-05
0.00028658
-9.56699e-06
0.000287771
-8.98263e-06
0.000288948
-8.37045e-06
0.000290118
-7.73046e-06
0.000291286
-7.06307e-06
0.000292463
-6.36921e-06
0.000293658
-5.65035e-06
0.000294881
-4.90875e-06
0.000296146
-4.14749e-06
0.000297464
-3.37057e-06
0.000298851
-2.58302e-06
0.000300322
-1.79075e-06
0.000301889
-1.00024e-06
0.000303563
-2.19296e-07
0.000305353
5.42649e-07
0.000307262
1.27559e-06
0.000309291
1.96948e-06
0.000311435
2.61439e-06
0.000313685
3.20249e-06
3.7281e-06
0.000316024
0.000209879
-1.67582e-06
0.000210197
-3.34042e-06
0.000210664
-4.80004e-06
0.000211266
-6.10594e-06
0.000211991
-7.28472e-06
0.00021283
-8.35354e-06
0.000213772
-9.3268e-06
0.000214808
-1.02166e-05
0.000215931
-1.10329e-05
0.000217134
-1.17835e-05
0.00021841
-1.24752e-05
0.000219753
-1.31136e-05
0.000221159
-1.37032e-05
0.000222621
-1.42481e-05
0.000224137
-1.47517e-05
0.0002257
-1.52168e-05
0.000227308
-1.5646e-05
0.000228956
-1.60414e-05
0.000230641
-1.6405e-05
0.00023236
-1.67383e-05
0.000234109
-1.70427e-05
0.000235885
-1.73197e-05
0.000237686
-1.75701e-05
0.000239508
-1.77951e-05
0.000241349
-1.79954e-05
0.000243206
-1.81719e-05
0.000245077
-1.83252e-05
0.000246959
-1.84559e-05
0.00024885
-1.85646e-05
0.000250747
-1.86518e-05
0.000252648
-1.87178e-05
0.000254552
-1.87631e-05
0.000256455
-1.8788e-05
0.000258356
-1.87927e-05
0.000260252
-1.87776e-05
0.000262143
-1.87429e-05
0.000264025
-1.86888e-05
0.000265896
-1.86153e-05
0.000267756
-1.85227e-05
0.000269603
-1.8411e-05
0.000271433
-1.82802e-05
0.000273247
-1.81305e-05
0.000275041
-1.79617e-05
0.000276815
-1.77738e-05
0.000278568
-1.75667e-05
0.000280297
-1.73404e-05
0.000282002
-1.70946e-05
0.000283681
-1.68291e-05
0.000285333
-1.65438e-05
0.000286958
-1.62383e-05
0.000288554
-1.59123e-05
0.000290121
-1.55656e-05
0.000291659
-1.51978e-05
0.000293167
-1.48085e-05
0.000294645
-1.43973e-05
0.000296095
-1.39638e-05
0.000297516
-1.35076e-05
0.000298911
-1.30285e-05
0.000300281
-1.25262e-05
0.000301628
-1.20003e-05
0.000302955
-1.1451e-05
0.000304266
-1.08782e-05
0.000305566
-1.02823e-05
0.000306859
-9.66386e-06
0.000308153
-9.02375e-06
0.000309453
-8.36328e-06
0.000310768
-7.68422e-06
0.000312107
-6.98888e-06
0.000313478
-6.28016e-06
0.000314892
-5.56161e-06
0.000316359
-4.83747e-06
0.000317889
-4.11263e-06
0.000319491
-3.39259e-06
0.000321174
-2.68332e-06
0.000322946
-1.99121e-06
0.00032481
-1.32221e-06
0.000326769
-6.8273e-07
0.000328817
-7.91278e-08
0.000330949
4.8225e-07
0.000333155
9.96657e-07
1.46107e-06
0.000335422
0.000224572
-1.83357e-06
0.000224899
-3.6678e-06
0.000225381
-5.28182e-06
0.000226003
-6.72833e-06
0.000226755
-8.0359e-06
0.000227624
-9.22265e-06
0.000228601
-1.03039e-05
0.000229677
-1.12926e-05
0.000230844
-1.21997e-05
0.000232095
-1.30338e-05
0.000233422
-1.38022e-05
0.00023482
-1.45111e-05
0.000236282
-1.51657e-05
0.000237805
-1.57702e-05
0.000239382
-1.63286e-05
0.000241009
-1.68441e-05
0.000242683
-1.73193e-05
0.000244399
-1.77569e-05
0.000246153
-1.81587e-05
0.000247941
-1.85267e-05
0.000249761
-1.88625e-05
0.00025161
-1.91675e-05
0.000253483
-1.94429e-05
0.000255378
-1.96899e-05
0.000257292
-1.99093e-05
0.000259222
-2.01021e-05
0.000261167
-2.02691e-05
0.000263122
-2.04109e-05
0.000265086
-2.05281e-05
0.000267055
-2.06213e-05
0.000269029
-2.06911e-05
0.000271004
-2.07378e-05
0.000272978
-2.07619e-05
0.000274949
-2.07637e-05
0.000276916
-2.07435e-05
0.000278875
-2.07017e-05
0.000280824
-2.06384e-05
0.000282763
-2.05539e-05
0.000284689
-2.04484e-05
0.000286601
-2.03221e-05
0.000288496
-2.0175e-05
0.000290373
-2.00072e-05
0.00029223
-1.98189e-05
0.000294066
-1.96101e-05
0.000295881
-1.93807e-05
0.000297671
-1.91308e-05
0.000299437
-1.88603e-05
0.000301178
-1.85692e-05
0.000302891
-1.82574e-05
0.000304578
-1.79248e-05
0.000306237
-1.75713e-05
0.000307868
-1.71968e-05
0.000309472
-1.68011e-05
0.000311048
-1.63843e-05
0.000312597
-1.59462e-05
0.00031412
-1.54868e-05
0.000315618
-1.50061e-05
0.000317094
-1.45042e-05
0.00031855
-1.39814e-05
0.000319987
-1.34379e-05
0.000321411
-1.28743e-05
0.000322824
-1.22913e-05
0.000324231
-1.16897e-05
0.000325638
-1.10708e-05
0.000327051
-1.04361e-05
0.000328475
-9.78744e-06
0.000329918
-9.12708e-06
0.000331387
-8.45769e-06
0.000332889
-7.78237e-06
0.000334432
-7.10467e-06
0.000336023
-6.42852e-06
0.000337669
-5.75825e-06
0.000339375
-5.09847e-06
0.000341145
-4.45398e-06
0.000342984
-3.82964e-06
0.000344892
-3.23017e-06
0.000346869
-2.66014e-06
0.000348913
-2.12358e-06
0.000351019
-1.62323e-06
0.000353177
-1.1616e-06
-7.39944e-07
0.000355378
0.000240293
-1.99571e-06
0.000240629
-4.00433e-06
0.000241126
-5.77797e-06
0.000241768
-7.37027e-06
0.000242544
-8.81161e-06
0.000243442
-1.01211e-05
0.000244453
-1.13148e-05
0.000245567
-1.24068e-05
0.000246777
-1.34086e-05
0.000248073
-1.43298e-05
0.000249449
-1.51783e-05
0.000250899
-1.59607e-05
0.000252416
-1.66829e-05
0.000253996
-1.73497e-05
0.000255633
-1.79651e-05
0.000257322
-1.85328e-05
0.000259058
-1.90558e-05
0.000260839
-1.95369e-05
0.000262659
-1.99784e-05
0.000264514
-2.03822e-05
0.000266402
-2.07502e-05
0.000268319
-2.1084e-05
0.000270261
-2.13849e-05
0.000272226
-2.16541e-05
0.00027421
-2.18929e-05
0.00027621
-2.21021e-05
0.000278224
-2.22826e-05
0.000280248
-2.24352e-05
0.000282281
-2.25606e-05
0.00028432
-2.26596e-05
0.000286361
-2.27325e-05
0.000288404
-2.27801e-05
0.000290445
-2.28026e-05
0.000292482
-2.28007e-05
0.000294514
-2.27747e-05
0.000296537
-2.27249e-05
0.000298551
-2.26517e-05
0.000300553
-2.25554e-05
0.000302541
-2.24363e-05
0.000304514
-2.22945e-05
0.000306469
-2.21303e-05
0.000308406
-2.1944e-05
0.000310323
-2.17356e-05
0.000312218
-2.15053e-05
0.000314091
-2.12534e-05