/*--------------------------------*- C++ -*----------------------------------*\
| =========                 |                                                 |
| \\      /  F ield         | OpenFOAM: The Open Source CFD Toolbox           |
|  \\    /   O peration     | Version:  2106                                  |
|   \\  /    A nd           | Website:  www.openfoam.com                      |
|    \\/     M anipulation  |                                                 |
\*---------------------------------------------------------------------------*/
FoamFile
{
    version     2.0;
    format      ascii;
    arch        "LSB;label=32;scalar=64";
    class       volScalarField;
    location    "7.6";
    object      T;
}
// * * * * * * * * * * * * * * * * * * * * * * * * * * * * * * * * * * * * * //

dimensions      [0 0 0 1 0 0 0];

internalField   nonuniform List<scalar> 
12013
(
300.004
300.011
300.018
300.026
300.034
300.042
300.051
300.06
300.07
300.08
300.09
300.1
300.111
300.123
300.134
300.146
300.159
300.172
300.186
300.199
300.214
300.229
300.244
300.26
300.276
300.293
300.31
300.328
300.347
300.366
300.385
300.406
300.426
300.448
300.47
300.493
300.516
300.54
300.565
300.59
300.616
300.643
300.671
300.699
300.729
300.759
300.79
300.821
300.854
300.888
300.922
300.958
300.994
301.032
301.071
301.11
301.151
301.193
301.237
301.282
301.328
301.375
301.424
301.475
301.527
301.581
301.637
301.695
301.755
301.818
301.883
301.951
302.023
302.098
302.177
302.262
302.353
302.451
302.56
302.683
302.831
300.004
300.011
300.018
300.026
300.034
300.042
300.051
300.06
300.07
300.08
300.09
300.1
300.111
300.123
300.134
300.146
300.159
300.172
300.186
300.199
300.214
300.229
300.244
300.26
300.276
300.293
300.31
300.328
300.347
300.366
300.385
300.406
300.426
300.448
300.47
300.493
300.516
300.54
300.565
300.59
300.616
300.643
300.671
300.699
300.729
300.759
300.79
300.821
300.854
300.888
300.922
300.958
300.994
301.032
301.07
301.11
301.151
301.193
301.236
301.281
301.327
301.375
301.423
301.474
301.526
301.58
301.636
301.694
301.754
301.816
301.881
301.949
302.02
302.095
302.174
302.257
302.347
302.443
302.547
302.662
302.788
300.004
300.011
300.018
300.026
300.034
300.042
300.051
300.06
300.07
300.08
300.09
300.1
300.111
300.123
300.134
300.146
300.159
300.172
300.186
300.199
300.214
300.229
300.244
300.26
300.276
300.293
300.31
300.328
300.347
300.366
300.385
300.406
300.426
300.448
300.47
300.493
300.516
300.54
300.565
300.59
300.616
300.643
300.671
300.699
300.728
300.758
300.789
300.821
300.854
300.887
300.922
300.957
300.994
301.031
301.07
301.11
301.15
301.192
301.236
301.28
301.326
301.373
301.422
301.473
301.525
301.578
301.634
301.692
301.751
301.813
301.878
301.945
302.015
302.089
302.166
302.248
302.334
302.425
302.523
302.626
302.734
300.004
300.011
300.018
300.026
300.034
300.042
300.051
300.06
300.07
300.08
300.09
300.1
300.111
300.123
300.134
300.146
300.159
300.172
300.185
300.199
300.214
300.229
300.244
300.26
300.276
300.293
300.31
300.328
300.347
300.366
300.385
300.406
300.426
300.448
300.47
300.492
300.516
300.54
300.565
300.59
300.616
300.643
300.671
300.699
300.728
300.758
300.789
300.821
300.853
300.887
300.921
300.957
300.993
301.031
301.069
301.109
301.149
301.191
301.234
301.279
301.325
301.372
301.42
301.47
301.522
301.575
301.631
301.688
301.747
301.808
301.872
301.938
302.007
302.079
302.154
302.232
302.315
302.401
302.49
302.583
302.676
300.004
300.011
300.018
300.026
300.034
300.042
300.051
300.06
300.07
300.08
300.09
300.1
300.111
300.123
300.134
300.146
300.159
300.172
300.185
300.199
300.214
300.229
300.244
300.26
300.276
300.293
300.31
300.328
300.347
300.366
300.385
300.405
300.426
300.448
300.47
300.492
300.516
300.54
300.564
300.59
300.616
300.643
300.67
300.699
300.728
300.758
300.788
300.82
300.853
300.886
300.92
300.956
300.992
301.029
301.068
301.107
301.148
301.19
301.233
301.277
301.322
301.369
301.417
301.467
301.518
301.571
301.626
301.682
301.74
301.801
301.863
301.928
301.995
302.065
302.137
302.212
302.29
302.37
302.452
302.535
302.617
300.004
300.011
300.018
300.026
300.034
300.042
300.051
300.06
300.07
300.08
300.09
300.1
300.111
300.123
300.134
300.146
300.159
300.172
300.185
300.199
300.214
300.229
300.244
300.26
300.276
300.293
300.31
300.328
300.346
300.365
300.385
300.405
300.426
300.447
300.469
300.492
300.515
300.539
300.564
300.589
300.615
300.642
300.67
300.698
300.727
300.757
300.788
300.819
300.852
300.885
300.919
300.955
300.991
301.028
301.066
301.105
301.146
301.187
301.23
301.274
301.319
301.365
301.413
301.462
301.513
301.565
301.619
301.675
301.732
301.791
301.852
301.915
301.98
302.047
302.116
302.187
302.26
302.334
302.409
302.484
302.558
300.004
300.011
300.018
300.026
300.034
300.042
300.051
300.06
300.07
300.08
300.09
300.1
300.111
300.122
300.134
300.146
300.159
300.172
300.185
300.199
300.214
300.228
300.244
300.26
300.276
300.293
300.31
300.328
300.346
300.365
300.385
300.405
300.426
300.447
300.469
300.492
300.515
300.539
300.563
300.589
300.615
300.642
300.669
300.697
300.726
300.756
300.787
300.818
300.851
300.884
300.918
300.953
300.989
301.026
301.064
301.103
301.143
301.184
301.227
301.27
301.315
301.361
301.408
301.457
301.506
301.558
301.611
301.665
301.721
301.779
301.838
301.899
301.961
302.025
302.09
302.157
302.225
302.294
302.363
302.431
302.498
300.004
300.011
300.018
300.026
300.034
300.042
300.051
300.06
300.07
300.08
300.09
300.1
300.111
300.122
300.134
300.146
300.159
300.172
300.185
300.199
300.214
300.228
300.244
300.259
300.276
300.293
300.31
300.328
300.346
300.365
300.385
300.405
300.425
300.447
300.469
300.491
300.514
300.538
300.563
300.588
300.614
300.641
300.668
300.696
300.725
300.755
300.785
300.817
300.849
300.882
300.916
300.951
300.987
301.023
301.061
301.1
301.139
301.18
301.222
301.265
301.309
301.355
301.401
301.449
301.498
301.548
301.6
301.653
301.708
301.763
301.82
301.879
301.939
301.999
302.061
302.124
302.187
302.251
302.314
302.377
302.438
300.004
300.011
300.018
300.026
300.034
300.042
300.051
300.06
300.07
300.079
300.09
300.1
300.111
300.122
300.134
300.146
300.159
300.172
300.185
300.199
300.213
300.228
300.244
300.259
300.276
300.292
300.31
300.327
300.346
300.365
300.384
300.404
300.425
300.446
300.468
300.491
300.514
300.538
300.562
300.587
300.613
300.64
300.667
300.695
300.724
300.753
300.784
300.815
300.847
300.88
300.914
300.948
300.984
301.02
301.057
301.096
301.135
301.175
301.217
301.259
301.303
301.347
301.393
301.44
301.488
301.537
301.587
301.639
301.691
301.745
301.8
301.856
301.913
301.97
302.029
302.087
302.146
302.205
302.263
302.321
302.378
300.004
300.011
300.018
300.026
300.034
300.042
300.051
300.06
300.07
300.079
300.09
300.1
300.111
300.122
300.134
300.146
300.159
300.172
300.185
300.199
300.213
300.228
300.243
300.259
300.275
300.292
300.309
300.327
300.346
300.364
300.384
300.404
300.425
300.446
300.468
300.49
300.513
300.537
300.561
300.586
300.612
300.639
300.666
300.694
300.722
300.752
300.782
300.813
300.845
300.877
300.911
300.945
300.98
301.016
301.053
301.091
301.13
301.17
301.21
301.252
301.295
301.338
301.383
301.429
301.476
301.523
301.572
301.622
301.673
301.724
301.777
301.83
301.884
301.938
301.993
302.048
302.103
302.157
302.211
302.264
302.317
300.004
300.011
300.018
300.026
300.034
300.042
300.051
300.06
300.07
300.079
300.09
300.1
300.111
300.122
300.134
300.146
300.159
300.172
300.185
300.199
300.213
300.228
300.243
300.259
300.275
300.292
300.309
300.327
300.345
300.364
300.383
300.403
300.424
300.445
300.467
300.489
300.512
300.536
300.56
300.585
300.611
300.637
300.664
300.692
300.72
300.749
300.779
300.81
300.842
300.874
300.907
300.941
300.976
301.011
301.048
301.085
301.123
301.162
301.202
301.243
301.285
301.328
301.371
301.416
301.461
301.508
301.555
301.603
301.651
301.701
301.751
301.801
301.852
301.903
301.954
302.006
302.057
302.107
302.158
302.207
302.255
300.004
300.011
300.018
300.026
300.034
300.042
300.051
300.06
300.07
300.079
300.089
300.1
300.111
300.122
300.134
300.146
300.158
300.171
300.185
300.199
300.213
300.228
300.243
300.259
300.275
300.291
300.309
300.326
300.345
300.363
300.383
300.403
300.423
300.444
300.466
300.488
300.511
300.535
300.559
300.584
300.609
300.635
300.662
300.69
300.718
300.747
300.776
300.807
300.838
300.87
300.903
300.936
300.97
301.006
301.041
301.078
301.116
301.154
301.193
301.233
301.274
301.315
301.358
301.401
301.445
301.489
301.535
301.581
301.627
301.674
301.722
301.769
301.817
301.865
301.914
301.961
302.009
302.056
302.103
302.149
302.193
300.004
300.011
300.018
300.026
300.034
300.042
300.051
300.06
300.07
300.079
300.089
300.1
300.111
300.122
300.134
300.146
300.158
300.171
300.185
300.198
300.213
300.227
300.243
300.258
300.274
300.291
300.308
300.326
300.344
300.363
300.382
300.402
300.422
300.443
300.465
300.487
300.51
300.533
300.557
300.582
300.607
300.633
300.66
300.687
300.715
300.744
300.773
300.803
300.834
300.865
300.898
300.931
300.964
300.999
301.034
301.07
301.107
301.144
301.182
301.221
301.261
301.301
301.342
301.384
301.426
301.469
301.512
301.556
301.601
301.645
301.69
301.735
301.78
301.825
301.87
301.915
301.96
302.004
302.047
302.089
302.131
300.004
300.011
300.018
300.026
300.034
300.042
300.051
300.06
300.069
300.079
300.089
300.1
300.111
300.122
300.134
300.146
300.158
300.171
300.184
300.198
300.212
300.227
300.242
300.258
300.274
300.29
300.308
300.325
300.343
300.362
300.381
300.401
300.421
300.442
300.464
300.486
300.508
300.531
300.555
300.58
300.605
300.63
300.657
300.684
300.712
300.74
300.769
300.798
300.829
300.86
300.892
300.924
300.957
300.991
301.025
301.06
301.096
301.133
301.17
301.208
301.246
301.285
301.325
301.365
301.405
301.446
301.488
301.529
301.572
301.614
301.656
301.699
301.741
301.783
301.826
301.867
301.909
301.95
301.99
302.03
302.069
300.003
300.011
300.018
300.026
300.034
300.042
300.051
300.06
300.069
300.079
300.089
300.1
300.111
300.122
300.133
300.145
300.158
300.171
300.184
300.198
300.212
300.227
300.242
300.257
300.273
300.29
300.307
300.324
300.342
300.361
300.38
300.4
300.42
300.441
300.462
300.484
300.506
300.529
300.553
300.577
300.602
300.627
300.654
300.68
300.707
300.735
300.764
300.793
300.823
300.853
300.885
300.916
300.949
300.982
301.015
301.05
301.084
301.12
301.156
301.192
301.229
301.267
301.305
301.343
301.382
301.421
301.461
301.5
301.54
301.58
301.62
301.66
301.7
301.74
301.779
301.818
301.857
301.895
301.932
301.969
302.006
300.003
300.011
300.018
300.026
300.034
300.042
300.051
300.06
300.069
300.079
300.089
300.1
300.11
300.122
300.133
300.145
300.158
300.17
300.184
300.197
300.212
300.226
300.241
300.257
300.273
300.289
300.306
300.324
300.341
300.36
300.379
300.398
300.418
300.439
300.46
300.482
300.504
300.527
300.55
300.574
300.599
300.624
300.65
300.676
300.703
300.73
300.758
300.787
300.816
300.846
300.877
300.908
300.939
300.971
301.004
301.037
301.071
301.105
301.14
301.175
301.211
301.247
301.283
301.32
301.357
301.394
301.432
301.469
301.507
301.545
301.582
301.62
301.657
301.694
301.731
301.767
301.804
301.839
301.874
301.909
301.943
300.003
300.011
300.018
300.026
300.034
300.042
300.051
300.06
300.069
300.079
300.089
300.099
300.11
300.121
300.133
300.145
300.157
300.17
300.183
300.197
300.211
300.226
300.241
300.256
300.272
300.288
300.305
300.322
300.34
300.359
300.377
300.397
300.417
300.437
300.458
300.48
300.502
300.524
300.547
300.571
300.595
300.62
300.645
300.671
300.697
300.724
300.752
300.78
300.809
300.838
300.868
300.898
300.928
300.96
300.991
301.024
301.056
301.089
301.123
301.157
301.191
301.225
301.26
301.295
301.33
301.365
301.401
301.436
301.472
301.507
301.543
301.578
301.613
301.647
301.682
301.716
301.75
301.783
301.816
301.848
301.88
300.003
300.011
300.018
300.026
300.034
300.042
300.051
300.06
300.069
300.079
300.089
300.099
300.11
300.121
300.133
300.145
300.157
300.17
300.183
300.196
300.21
300.225
300.24
300.255
300.271
300.287
300.304
300.321
300.339
300.357
300.376
300.395
300.415
300.435
300.456
300.477
300.499
300.521
300.544
300.567
300.591
300.615
300.64
300.665
300.691
300.718
300.745
300.772
300.8
300.828
300.857
300.887
300.916
300.947
300.977
301.008
301.04
301.072
301.104
301.136
301.169
301.202
301.235
301.268
301.301
301.335
301.368
301.402
301.435
301.468
301.501
301.534
301.567
301.6
301.632
301.664
301.695
301.726
301.757
301.787
301.816
300.003
300.011
300.018
300.026
300.034
300.042
300.051
300.06
300.069
300.079
300.089
300.099
300.11
300.121
300.132
300.144
300.156
300.169
300.182
300.196
300.21
300.224
300.239
300.254
300.27
300.286
300.303
300.32
300.337
300.355
300.374
300.393
300.412
300.432
300.453
300.474
300.495
300.517
300.539
300.562
300.586
300.61
300.634
300.659
300.684
300.71
300.736
300.763
300.79
300.818
300.846
300.874
300.903
300.932
300.962
300.992
301.022
301.052
301.083
301.114
301.145
301.176
301.208
301.239
301.271
301.302
301.334
301.365
301.397
301.428
301.459
301.49
301.521
301.551
301.581
301.611
301.64
301.669
301.698
301.726
301.753
300.003
300.011
300.018
300.026
300.034
300.042
300.05
300.059
300.069
300.078
300.088
300.099
300.109
300.12
300.132
300.144
300.156
300.169
300.182
300.195
300.209
300.223
300.238
300.253
300.269
300.285
300.301
300.318
300.335
300.353
300.372
300.39
300.41
300.429
300.449
300.47
300.491
300.513
300.535
300.557
300.58
300.604
300.627
300.652
300.676
300.702
300.727
300.753
300.779
300.806
300.833
300.861
300.888
300.917
300.945
300.974
301.002
301.032
301.061
301.09
301.12
301.15
301.179
301.209
301.239
301.269
301.298
301.328
301.357
301.387
301.416
301.445
301.473
301.502
301.53
301.557
301.585
301.612
301.638
301.665
301.69
300.003
300.011
300.018
300.025
300.033
300.042
300.05
300.059
300.068
300.078
300.088
300.098
300.109
300.12
300.131
300.143
300.155
300.168
300.181
300.194
300.208
300.222
300.237
300.252
300.267
300.283
300.299
300.316
300.333
300.351
300.369
300.388
300.407
300.426
300.446
300.466
300.487
300.508
300.529
300.551
300.574
300.597
300.62
300.644
300.668
300.692
300.717
300.742
300.768
300.793
300.82
300.846
300.873
300.9
300.927
300.954
300.982
301.009
301.037
301.065
301.093
301.121
301.149
301.178
301.206
301.234
301.261
301.289
301.317
301.344
301.372
301.399
301.425
301.452
301.478
301.504
301.53
301.555
301.58
301.604
301.628
300.003
300.01
300.018
300.025
300.033
300.042
300.05
300.059
300.068
300.078
300.088
300.098
300.108
300.119
300.131
300.143
300.155
300.167
300.18
300.193
300.207
300.221
300.235
300.25
300.266
300.281
300.297
300.314
300.331
300.348
300.366
300.384
300.403
300.422
300.442
300.461
300.482
300.502
300.524
300.545
300.567
300.589
300.612
300.635
300.658
300.682
300.706
300.73
300.755
300.78
300.805
300.83
300.856
300.881
300.907
300.933
300.96
300.986
301.012
301.039
301.065
301.092
301.118
301.145
301.171
301.198
301.224
301.25
301.276
301.301
301.327
301.352
301.377
301.402
301.426
301.451
301.474
301.498
301.521
301.544
301.567
300.003
300.01
300.018
300.025
300.033
300.041
300.05
300.059
300.068
300.077
300.087
300.097
300.108
300.119
300.13
300.142
300.154
300.166
300.179
300.192
300.206
300.22
300.234
300.249
300.264
300.279
300.295
300.312
300.328
300.345
300.363
300.381
300.399
300.418
300.437
300.456
300.476
300.496
300.517
300.538
300.559
300.581
300.603
300.625
300.648
300.671
300.694
300.717
300.741
300.765
300.789
300.813
300.837
300.862
300.887
300.912
300.937
300.961
300.987
301.012
301.037
301.062
301.087
301.112
301.136
301.161
301.186
301.21
301.234
301.258
301.282
301.306
301.329
301.352
301.375
301.398
301.42
301.442
301.463
301.485
301.506
300.003
300.01
300.018
300.025
300.033
300.041
300.05
300.058
300.068
300.077
300.087
300.097
300.107
300.118
300.129
300.141
300.153
300.165
300.178
300.191
300.204
300.218
300.232
300.247
300.262
300.277
300.293
300.309
300.325
300.342
300.359
300.377
300.395
300.413
300.432
300.451
300.47
300.49
300.51
300.53
300.551
300.572
300.593
300.615
300.636
300.658
300.681
300.703
300.726
300.749
300.772
300.795
300.818
300.842
300.865
300.889
300.912
300.936
300.96
300.983
301.007
301.031
301.054
301.077
301.101
301.124
301.147
301.17
301.193
301.215
301.237
301.259
301.281
301.303
301.324
301.345
301.366
301.386
301.407
301.426
301.446
300.003
300.01
300.018
300.025
300.033
300.041
300.049
300.058
300.067
300.077
300.086
300.096
300.107
300.118
300.129
300.14
300.152
300.164
300.177
300.189
300.203
300.216
300.23
300.245
300.259
300.274
300.29
300.306
300.322
300.338
300.355
300.372
300.39
300.408
300.426
300.445
300.464
300.483
300.502
300.522
300.542
300.562
300.583
300.603
300.624
300.646
300.667
300.689
300.71
300.732
300.754
300.776
300.798
300.821
300.843
300.865
300.888
300.91
300.932
300.955
300.977
300.999
301.021
301.043
301.065
301.087
301.108
301.13
301.151
301.172
301.193
301.213
301.234
301.254
301.274
301.293
301.313
301.332
301.351
301.369
301.388
300.003
300.01
300.017
300.025
300.033
300.041
300.049
300.058
300.067
300.076
300.086
300.096
300.106
300.117
300.128
300.139
300.151
300.163
300.175
300.188
300.201
300.214
300.228
300.242
300.257
300.272
300.287
300.302
300.318
300.334
300.351
300.368
300.385
300.402
300.42
300.438
300.456
300.475
300.494
300.513
300.532
300.552
300.572
300.592
300.612
300.632
300.653
300.673
300.694
300.715
300.736
300.757
300.778
300.799
300.82
300.841
300.862
300.883
300.905
300.926
300.946
300.967
300.988
301.009
301.029
301.05
301.07
301.09
301.11
301.129
301.149
301.168
301.187
301.206
301.225
301.243
301.261
301.279
301.297
301.314
301.331
300.003
300.01
300.017
300.025
300.032
300.04
300.049
300.057
300.066
300.076
300.085
300.095
300.105
300.116
300.127
300.138
300.149
300.161
300.174
300.186
300.199
300.212
300.226
300.24
300.254
300.269
300.283
300.299
300.314
300.33
300.346
300.362
300.379
300.396
300.413
300.431
300.449
300.467
300.485
300.503
300.522
300.541
300.56
300.579
300.598
300.618
300.637
300.657
300.677
300.697
300.717
300.737
300.757
300.777
300.797
300.817
300.837
300.857
300.877
300.896
300.916
300.936
300.955
300.975
300.994
301.013
301.032
301.051
301.069
301.088
301.106
301.124
301.142
301.159
301.177
301.194
301.211
301.227
301.244
301.26
301.276
300.003
300.01
300.017
300.025
300.032
300.04
300.048
300.057
300.066
300.075
300.084
300.094
300.104
300.115
300.126
300.137
300.148
300.16
300.172
300.184
300.197
300.21
300.223
300.237
300.251
300.265
300.28
300.295
300.31
300.325
300.341
300.357
300.373
300.39
300.406
300.423
300.441
300.458
300.476
300.493
300.511
300.53
300.548
300.566
300.585
300.603
300.622
300.641
300.66
300.679
300.698
300.717
300.736
300.755
300.773
300.792
300.811
300.83
300.849
300.867
300.886
300.904
300.923
300.941
300.959
300.977
300.995
301.012
301.03
301.047
301.064
301.081
301.097
301.114
301.13
301.146
301.162
301.178
301.193
301.208
301.223
300.003
300.01
300.017
300.024
300.032
300.04
300.048
300.056
300.065
300.074
300.084
300.093
300.103
300.114
300.124
300.135
300.147
300.158
300.17
300.182
300.195
300.207
300.221
300.234
300.248
300.262
300.276
300.29
300.305
300.32
300.336
300.351
300.367
300.383
300.399
300.416
300.432
300.449
300.466
300.483
300.5
300.518
300.535
300.553
300.571
300.589
300.606
300.624
300.642
300.66
300.678
300.696
300.714
300.732
300.75
300.768
300.786
300.804
300.821
300.839
300.856
300.874
300.891
300.908
300.925
300.942
300.959
300.975
300.991
301.008
301.024
301.039
301.055
301.07
301.086
301.101
301.116
301.13
301.145
301.159
301.173
300.003
300.01
300.017
300.024
300.032
300.039
300.048
300.056
300.065
300.074
300.083
300.092
300.102
300.113
300.123
300.134
300.145
300.156
300.168
300.18
300.192
300.205
300.218
300.231
300.244
300.258
300.272
300.286
300.3
300.315
300.33
300.345
300.36
300.376
300.392
300.408
300.424
300.44
300.456
300.473
300.489
300.506
300.523
300.54
300.557
300.574
300.591
300.608
300.625
300.642
300.659
300.676
300.693
300.711
300.728
300.744
300.761
300.778
300.795
300.811
300.828
300.844
300.86
300.877
300.893
300.908
300.924
300.94
300.955
300.97
300.985
301
301.015
301.029
301.043
301.058
301.071
301.085
301.099
301.112
301.125
300.003
300.01
300.017
300.024
300.031
300.039
300.047
300.055
300.064
300.073
300.082
300.091
300.101
300.111
300.122
300.132
300.143
300.154
300.166
300.178
300.19
300.202
300.215
300.228
300.241
300.254
300.268
300.281
300.296
300.31
300.324
300.339
300.354
300.369
300.384
300.399
300.415
300.431
300.446
300.462
300.478
300.494
300.51
300.527
300.543
300.559
300.575
300.592
300.608
300.624
300.641
300.657
300.673
300.689
300.705
300.722
300.737
300.753
300.769
300.785
300.8
300.816
300.831
300.846
300.861
300.876
300.891
300.906
300.92
300.935
300.949
300.963
300.977
300.99
301.004
301.017
301.03
301.043
301.056
301.068
301.081
300.003
300.01
300.017
300.024
300.031
300.039
300.047
300.055
300.063
300.072
300.081
300.09
300.1
300.11
300.12
300.131
300.141
300.152
300.164
300.175
300.187
300.199
300.212
300.224
300.237
300.25
300.263
300.277
300.291
300.304
300.319
300.333
300.347
300.362
300.377
300.391
300.406
300.421
300.437
300.452
300.467
300.483
300.498
300.514
300.529
300.545
300.56
300.576
300.592
300.607
300.623
300.638
300.654
300.669
300.684
300.7
300.715
300.73
300.745
300.76
300.774
300.789
300.804
300.818
300.832
300.846
300.86
300.874
300.888
300.901
300.915
300.928
300.941
300.954
300.967
300.979
300.992
301.004
301.016
301.028
301.039
300.003
300.01
300.016
300.023
300.031
300.038
300.046
300.054
300.063
300.071
300.08
300.089
300.099
300.109
300.119
300.129
300.14
300.15
300.162
300.173
300.185
300.196
300.208
300.221
300.233
300.246
300.259
300.272
300.286
300.299
300.313
300.327
300.341
300.355
300.369
300.383
300.398
300.413
300.427
300.442
300.457
300.472
300.486
300.501
300.516
300.531
300.546
300.561
300.576
300.591
300.606
300.621
300.635
300.65
300.665
300.679
300.694
300.708
300.722
300.736
300.75
300.764
300.778
300.792
300.805
300.819
300.832
300.845
300.858
300.871
300.884
300.896
300.908
300.921
300.933
300.945
300.956
300.968
300.979
300.991
301.002
300.003
300.01
300.016
300.023
300.03
300.038
300.046
300.054
300.062
300.07
300.079
300.088
300.098
300.107
300.117
300.127
300.138
300.148
300.159
300.171
300.182
300.194
300.205
300.217
300.23
300.242
300.255
300.268
300.281
300.294
300.307
300.321
300.334
300.348
300.362
300.376
300.39
300.404
300.418
300.432
300.447
300.461
300.475
300.49
300.504
300.519
300.533
300.547
300.562
300.576
300.59
300.604
300.618
300.632
300.646
300.66
300.674
300.688
300.701
300.715
300.728
300.742
300.755
300.768
300.781
300.793
300.806
300.819
300.831
300.843
300.855
300.867
300.879
300.891
300.902
300.913
300.925
300.936
300.947
300.957
300.968
300.003
300.009
300.016
300.023
300.03
300.037
300.045
300.053
300.061
300.07
300.078
300.087
300.096
300.106
300.116
300.126
300.136
300.147
300.157
300.168
300.179
300.191
300.202
300.214
300.226
300.239
300.251
300.263
300.276
300.289
300.302
300.315
300.328
300.342
300.355
300.369
300.382
300.396
300.41
300.424
300.438
300.451
300.465
300.479
300.493
300.507
300.521
300.535
300.548
300.562
300.576
300.59
300.603
300.617
300.63
300.643
300.657
300.67
300.683
300.696
300.709
300.721
300.734
300.747
300.759
300.771
300.783
300.795
300.807
300.819
300.83
300.842
300.853
300.864
300.875
300.886
300.897
300.907
300.918
300.928
300.938
300.003
300.009
300.016
300.023
300.03
300.037
300.045
300.052
300.06
300.069
300.077
300.086
300.095
300.105
300.114
300.124
300.134
300.145
300.155
300.166
300.177
300.188
300.2
300.211
300.223
300.235
300.247
300.26
300.272
300.285
300.297
300.31
300.323
300.336
300.349
300.362
300.376
300.389
300.402
300.416
300.429
300.443
300.456
300.47
300.483
300.497
300.51
300.524
300.537
300.55
300.563
300.577
300.59
300.603
300.616
300.629
300.642
300.654
300.667
300.679
300.692
300.704
300.716
300.728
300.74
300.752
300.764
300.775
300.787
300.798
300.809
300.82
300.831
300.842
300.852
300.863
300.873
300.883
300.893
300.903
300.913
300.003
300.009
300.016
300.022
300.029
300.037
300.044
300.052
300.06
300.068
300.077
300.085
300.094
300.104
300.113
300.123
300.133
300.143
300.153
300.164
300.175
300.186
300.197
300.209
300.22
300.232
300.244
300.256
300.268
300.281
300.293
300.306
300.318
300.331
300.344
300.357
300.37
300.383
300.396
300.409
300.422
300.435
300.449
300.462
300.475
300.488
300.501
300.514
300.527
300.54
300.553
300.566
300.579
300.591
300.604
300.616
300.629
300.641
300.653
300.666
300.678
300.69
300.701
300.713
300.725
300.736
300.747
300.759
300.77
300.78
300.791
300.802
300.812
300.823
300.833
300.843
300.853
300.863
300.873
300.882
300.892
300.003
300.009
300.016
300.022
300.029
300.036
300.044
300.051
300.059
300.067
300.076
300.085
300.093
300.103
300.112
300.122
300.132
300.142
300.152
300.162
300.173
300.184
300.195
300.206
300.218
300.23
300.241
300.253
300.265
300.277
300.29
300.302
300.315
300.327
300.34
300.352
300.365
300.378
300.391
300.404
300.417
300.43
300.442
300.455
300.468
300.481
300.494
300.507
300.519
300.532
300.545
300.557
300.57
300.582
300.594
300.607
300.619
300.631
300.643
300.655
300.666
300.678
300.69
300.701
300.712
300.723
300.735
300.745
300.756
300.767
300.777
300.788
300.798
300.808
300.818
300.828
300.838
300.848
300.857
300.866
300.876
300.003
300.009
300.015
300.022
300.029
300.036
300.043
300.051
300.059
300.067
300.075
300.084
300.093
300.102
300.111
300.121
300.13
300.14
300.151
300.161
300.172
300.183
300.194
300.205
300.216
300.228
300.239
300.251
300.263
300.275
300.287
300.299
300.312
300.324
300.337
300.349
300.362
300.374
300.387
300.4
300.412
300.425
300.438
300.451
300.463
300.476
300.488
300.501
300.514
300.526
300.539
300.551
300.563
300.575
300.588
300.6
300.612
300.623
300.635
300.647
300.658
300.67
300.681
300.692
300.703
300.714
300.725
300.736
300.747
300.757
300.767
300.778
300.788
300.798
300.808
300.817
300.827
300.836
300.846
300.855
300.864
300.003
300.009
300.015
300.022
300.029
300.036
300.043
300.051
300.058
300.067
300.075
300.083
300.092
300.101
300.111
300.12
300.13
300.14
300.15
300.16
300.171
300.182
300.192
300.204
300.215
300.226
300.238
300.25
300.261
300.273
300.285
300.297
300.31
300.322
300.334
300.347
300.359
300.372
300.384
300.397
300.41
300.422
300.435
300.447
300.46
300.473
300.485
300.498
300.51
300.522
300.535
300.547
300.559
300.571
300.583
300.595
300.607
300.619
300.63
300.642
300.653
300.665
300.676
300.687
300.698
300.709
300.719
300.73
300.741
300.751
300.761
300.771
300.781
300.791
300.801
300.81
300.82
300.829
300.838
300.848
300.857
300.003
300.009
300.015
300.022
300.029
300.036
300.043
300.051
300.058
300.066
300.075
300.083
300.092
300.101
300.11
300.12
300.129
300.139
300.149
300.16
300.17
300.181
300.192
300.203
300.214
300.226
300.237
300.249
300.261
300.272
300.284
300.297
300.309
300.321
300.333
300.346
300.358
300.371
300.383
300.396
300.408
300.421
300.433
300.446
300.458
300.471
300.483
300.496
300.508
300.521
300.533
300.545
300.557
300.569
300.581
300.593
300.605
300.616
300.628
300.64
300.651
300.662
300.673
300.684
300.695
300.706
300.717
300.727
300.738
300.748
300.758
300.768
300.778
300.788
300.798
300.807
300.817
300.826
300.835
300.844
300.853
303.026
303.155
303.232
303.305
303.368
303.42
303.455
303.495
303.534
303.571
303.603
303.637
303.672
303.706
303.74
303.773
303.804
303.832
303.861
303.891
303.92
303.95
303.979
304.008
304.037
304.066
304.094
304.122
304.15
304.177
304.204
304.231
304.257
304.283
304.309
304.335
304.361
304.386
304.411
304.436
304.461
304.485
304.51
304.538
304.564
304.589
304.612
304.638
304.664
304.689
304.714
304.736
304.761
304.786
304.811
304.837
304.863
304.889
304.914
304.938
304.959
304.982
305.006
305.03
305.055
305.08
305.104
305.129
305.153
305.177
305.202
305.225
305.249
305.272
305.296
305.319
305.343
305.366
305.388
305.413
305.441
305.467
305.49
305.513
305.535
305.555
305.58
305.607
305.631
305.653
305.673
305.697
305.724
305.746
305.771
305.798
305.822
305.844
305.869
305.893
305.914
305.938
305.959
305.983
306.008
306.035
306.059
306.078
306.101
306.121
306.143
306.168
306.193
306.219
306.242
306.26
306.282
306.306
306.33
306.351
306.367
306.387
306.408
306.429
306.449
306.463
306.481
306.498
306.516
306.533
306.549
306.563
306.577
306.589
306.601
306.61
306.618
306.625
306.63
306.634
306.635
306.635
306.632
306.628
306.621
306.611
306.599
306.584
306.566
306.543
306.513
306.482
306.449
306.41
306.366
306.315
306.259
306.164
306.076
305.966
305.823
302.925
303.038
303.126
303.202
303.267
303.322
303.369
303.412
303.454
303.493
303.53
303.566
303.602
303.637
303.672
303.705
303.737
303.768
303.798
303.829
303.859
303.889
303.919
303.949
303.978
304.007
304.036
304.064
304.093
304.12
304.148
304.175
304.202
304.228
304.255
304.281
304.307
304.333
304.358
304.384
304.409
304.434
304.46
304.486
304.512
304.538
304.563
304.588
304.614
304.639
304.664
304.688
304.712
304.737
304.763
304.789
304.815
304.84
304.866
304.89
304.912
304.936
304.96
304.984
305.009
305.034
305.059
305.083
305.108
305.132
305.157
305.18
305.204
305.228
305.252
305.276
305.299
305.323
305.346
305.371
305.398
305.423
305.447
305.471
305.493
305.515
305.539
305.565
305.59
305.612
305.634
305.658
305.683
305.707
305.732
305.758
305.783
305.806
305.831
305.854
305.876
305.9
305.922
305.946
305.971
305.997
306.021
306.042
306.065
306.086
306.109
306.133
306.158
306.184
306.207
306.226
306.248
306.272
306.295
306.317
306.334
306.354
306.376
306.396
306.416
306.432
306.449
306.467
306.485
306.502
306.518
306.533
306.547
306.559
306.571
306.581
306.589
306.596
306.601
306.605
306.606
306.606
306.604
306.599
306.592
306.583
306.571
306.556
306.537
306.514
306.485
306.453
306.419
306.38
306.334
306.282
306.222
306.129
306.037
305.921
305.764
302.842
302.942
303.028
303.103
303.17
303.228
303.279
303.327
303.371
303.413
303.453
303.491
303.528
303.565
303.6
303.635
303.668
303.7
303.732
303.763
303.794
303.825
303.856
303.886
303.916
303.945
303.974
304.003
304.032
304.06
304.088
304.116
304.143
304.17
304.197
304.223
304.25
304.276
304.302
304.328
304.354
304.379
304.405
304.432
304.458
304.484
304.509
304.535
304.56
304.586
304.611
304.636
304.661