/*--------------------------------*- C++ -*----------------------------------*\
| =========                 |                                                 |
| \\      /  F ield         | OpenFOAM: The Open Source CFD Toolbox           |
|  \\    /   O peration     | Version:  2106                                  |
|   \\  /    A nd           | Website:  www.openfoam.com                      |
|    \\/     M anipulation  |                                                 |
\*---------------------------------------------------------------------------*/
FoamFile
{
    version     2.0;
    format      ascii;
    arch        "LSB;label=32;scalar=64";
    class       volVectorField;
    location    "7.6";
    object      U;
}
// * * * * * * * * * * * * * * * * * * * * * * * * * * * * * * * * * * * * * //

dimensions      [0 1 -1 0 0 0 0];

internalField   nonuniform List<vector> 
12013
(
(0.100038 -1.06448e-05 0)
(0.100194 -1.96931e-05 0)
(0.100448 -2.80984e-05 0)
(0.100775 -3.58629e-05 0)
(0.101171 -4.317e-05 0)
(0.101628 -5.01224e-05 0)
(0.102141 -5.67855e-05 0)
(0.102705 -6.32121e-05 0)
(0.103315 -6.94416e-05 0)
(0.103969 -7.55048e-05 0)
(0.104663 -8.14264e-05 0)
(0.105393 -8.72263e-05 0)
(0.106158 -9.29204e-05 0)
(0.106954 -9.8522e-05 0)
(0.10778 -0.000104041 0)
(0.108633 -0.000109487 0)
(0.109511 -0.000114865 0)
(0.110414 -0.000120182 0)
(0.111338 -0.00012544 0)
(0.112282 -0.000130643 0)
(0.113245 -0.000135792 0)
(0.114225 -0.000140887 0)
(0.115221 -0.000145928 0)
(0.116231 -0.000150915 0)
(0.117255 -0.000155846 0)
(0.11829 -0.000160717 0)
(0.119336 -0.000165527 0)
(0.120391 -0.00017027 0)
(0.121455 -0.000174943 0)
(0.122525 -0.000179541 0)
(0.123602 -0.000184057 0)
(0.124683 -0.000188485 0)
(0.125768 -0.000192818 0)
(0.126855 -0.000197048 0)
(0.127944 -0.000201165 0)
(0.129034 -0.000205161 0)
(0.130122 -0.000209023 0)
(0.131209 -0.000212741 0)
(0.132293 -0.0002163 0)
(0.133373 -0.000219687 0)
(0.134448 -0.000222886 0)
(0.135517 -0.000225877 0)
(0.136578 -0.000228641 0)
(0.137631 -0.000231156 0)
(0.138674 -0.000233398 0)
(0.139707 -0.000235337 0)
(0.140727 -0.000236942 0)
(0.141733 -0.000238178 0)
(0.142725 -0.000239004 0)
(0.1437 -0.000239373 0)
(0.144657 -0.000239233 0)
(0.145594 -0.000238522 0)
(0.14651 -0.000237169 0)
(0.147402 -0.000235092 0)
(0.148269 -0.000232195 0)
(0.149107 -0.000228364 0)
(0.149915 -0.000223463 0)
(0.150689 -0.000217333 0)
(0.151426 -0.00020978 0)
(0.152122 -0.00020057 0)
(0.152774 -0.000189416 0)
(0.153375 -0.000175964 0)
(0.153921 -0.000159772 0)
(0.154404 -0.000140283 0)
(0.154815 -0.000116786 0)
(0.155146 -8.83593e-05 0)
(0.155383 -5.37935e-05 0)
(0.155512 -1.14728e-05 0)
(0.155513 4.08142e-05 0)
(0.155362 0.00010621 0)
(0.155026 0.000189205 0)
(0.154463 0.000296407 0)
(0.153611 0.000437845 0)
(0.152387 0.000629246 0)
(0.150668 0.000896134 0)
(0.14827 0.0012814 0)
(0.144908 0.00185985 0)
(0.140104 0.00276992 0)
(0.133067 0.00431103 0)
(0.122694 0.00736482 0)
(0.110783 0.0160832 0)
(0.100035 -3.25012e-05 0)
(0.100191 -6.03779e-05 0)
(0.100443 -8.61919e-05 0)
(0.10077 -0.000110021 0)
(0.101164 -0.000132447 0)
(0.10162 -0.000153782 0)
(0.102132 -0.000174228 0)
(0.102695 -0.000193946 0)
(0.103305 -0.000213058 0)
(0.103958 -0.000231658 0)
(0.10465 -0.000249823 0)
(0.105379 -0.000267614 0)
(0.106143 -0.000285079 0)
(0.106938 -0.000302259 0)
(0.107763 -0.000319186 0)
(0.108615 -0.000335886 0)
(0.109492 -0.000352379 0)
(0.110393 -0.00036868 0)
(0.111315 -0.000384803 0)
(0.112258 -0.000400754 0)
(0.11322 -0.000416538 0)
(0.114199 -0.000432158 0)
(0.115193 -0.000447612 0)
(0.116202 -0.000462897 0)
(0.117224 -0.000478009 0)
(0.118257 -0.000492938 0)
(0.119302 -0.000507677 0)
(0.120355 -0.000522212 0)
(0.121417 -0.00053653 0)
(0.122485 -0.000550616 0)
(0.12356 -0.000564452 0)
(0.124639 -0.000578016 0)
(0.125722 -0.000591288 0)
(0.126807 -0.000604243 0)
(0.127894 -0.000616853 0)
(0.128981 -0.000629088 0)
(0.130068 -0.000640914 0)
(0.131152 -0.000652296 0)
(0.132234 -0.000663192 0)
(0.133312 -0.000673559 0)
(0.134384 -0.000683346 0)
(0.13545 -0.000692498 0)
(0.136509 -0.000700955 0)
(0.13756 -0.000708648 0)
(0.1386 -0.0007155 0)
(0.13963 -0.000721427 0)
(0.140647 -0.000726331 0)
(0.141651 -0.000730104 0)
(0.14264 -0.000732621 0)
(0.143612 -0.00073374 0)
(0.144567 -0.0007333 0)
(0.145501 -0.000731114 0)
(0.146414 -0.000726965 0)
(0.147304 -0.000720604 0)
(0.148168 -0.000711735 0)
(0.149004 -0.000700013 0)
(0.14981 -0.000685028 0)
(0.150582 -0.000666293 0)
(0.151317 -0.00064322 0)
(0.152013 -0.000615098 0)
(0.152663 -0.00058106 0)
(0.153265 -0.000540036 0)
(0.153811 -0.000490694 0)
(0.154296 -0.000431355 0)
(0.154712 -0.000359883 0)
(0.155048 -0.000273522 0)
(0.155294 -0.000168661 0)
(0.155436 -4.05066e-05 0)
(0.155456 0.000117439 0)
(0.155333 0.000314258 0)
(0.155037 0.000562832 0)
(0.154532 0.000881845 0)
(0.153769 0.00129912 0)
(0.152683 0.00185723 0)
(0.151186 0.00262303 0)
(0.149158 0.00370407 0)
(0.146434 0.00527608 0)
(0.142793 0.00762882 0)
(0.13796 0.0112439 0)
(0.13195 0.0168332 0)
(0.127062 0.0247832 0)
(0.100032 -5.52403e-05 0)
(0.100186 -0.000103563 0)
(0.100436 -0.000148023 0)
(0.10076 -0.000189052 0)
(0.101153 -0.000227656 0)
(0.101607 -0.000264375 0)
(0.102117 -0.000299559 0)
(0.102678 -0.000333487 0)
(0.103285 -0.000366369 0)
(0.103936 -0.000398369 0)
(0.104626 -0.000429617 0)
(0.105353 -0.000460218 0)
(0.106114 -0.000490258 0)
(0.106907 -0.000519805 0)
(0.107729 -0.000548915 0)
(0.108579 -0.000577632 0)
(0.109453 -0.000605992 0)
(0.110352 -0.000634021 0)
(0.111272 -0.00066174 0)
(0.112212 -0.000689161 0)
(0.11317 -0.000716295 0)
(0.114146 -0.000743142 0)
(0.115137 -0.000769704 0)
(0.116143 -0.000795973 0)
(0.117161 -0.00082194 0)
(0.118192 -0.000847593 0)
(0.119232 -0.000872914 0)
(0.120282 -0.000897885 0)
(0.12134 -0.000922479 0)
(0.122405 -0.000946672 0)
(0.123476 -0.000970431 0)
(0.124551 -0.000993722 0)
(0.12563 -0.00101651 0)
(0.126711 -0.00103874 0)
(0.127793 -0.00106039 0)
(0.128876 -0.00108138 0)
(0.129958 -0.00110167 0)
(0.131038 -0.00112119 0)
(0.132115 -0.00113987 0)
(0.133187 -0.00115764 0)
(0.134255 -0.00117442 0)
(0.135316 -0.0011901 0)
(0.13637 -0.00120458 0)
(0.137415 -0.00121774 0)
(0.13845 -0.00122946 0)
(0.139475 -0.00123959 0)
(0.140487 -0.00124796 0)
(0.141485 -0.00125439 0)
(0.142468 -0.00125866 0)
(0.143435 -0.00126054 0)
(0.144384 -0.00125974 0)
(0.145313 -0.00125595 0)
(0.146221 -0.0012488 0)
(0.147105 -0.00123787 0)
(0.147964 -0.00122266 0)
(0.148795 -0.00120257 0)
(0.149596 -0.00117694 0)
(0.150364 -0.00114492 0)
(0.151096 -0.00110553 0)
(0.151788 -0.00105759 0)
(0.152437 -0.000999644 0)
(0.153037 -0.000929915 0)
(0.153585 -0.000846197 0)
(0.154073 -0.000745728 0)
(0.154494 -0.000625014 0)
(0.154841 -0.000479575 0)
(0.155102 -0.000303602 0)
(0.155267 -8.9461e-05 0)
(0.155319 0.000173023 0)
(0.155242 0.000497762 0)
(0.155014 0.00090408 0)
(0.154607 0.00141922 0)
(0.153991 0.0020823 0)
(0.153125 0.00295039 0)
(0.151967 0.00410794 0)
(0.150471 0.00568064 0)
(0.148604 0.0078537 0)
(0.146373 0.0108907 0)
(0.143888 0.0151371 0)
(0.14158 0.0208931 0)
(0.140716 0.0276371 0)
(0.100029 -7.86636e-05 0)
(0.10018 -0.000149125 0)
(0.100427 -0.000213518 0)
(0.100748 -0.000272976 0)
(0.101137 -0.000328894 0)
(0.101588 -0.000382065 0)
(0.102095 -0.000433004 0)
(0.102653 -0.000482115 0)
(0.103257 -0.000529706 0)
(0.103904 -0.000576013 0)
(0.104591 -0.000621228 0)
(0.105315 -0.000665502 0)
(0.106072 -0.000708959 0)
(0.106861 -0.000751698 0)
(0.10768 -0.000793801 0)
(0.108525 -0.000835332 0)
(0.109396 -0.000876341 0)
(0.11029 -0.000916868 0)
(0.111205 -0.000956941 0)
(0.112141 -0.000996581 0)
(0.113095 -0.0010358 0)
(0.114066 -0.0010746 0)
(0.115052 -0.00111298 0)
(0.116053 -0.00115094 0)
(0.117066 -0.00118845 0)
(0.118092 -0.0012255 0)
(0.119127 -0.00126207 0)
(0.120171 -0.00129813 0)
(0.121224 -0.00133364 0)
(0.122283 -0.00136856 0)
(0.123347 -0.00140285 0)
(0.124416 -0.00143645 0)
(0.125489 -0.00146932 0)
(0.126563 -0.00150139 0)
(0.127639 -0.00153259 0)
(0.128715 -0.00156286 0)
(0.12979 -0.00159209 0)
(0.130863 -0.00162021 0)
(0.131933 -0.00164712 0)
(0.132998 -0.00167269 0)
(0.134058 -0.00169682 0)
(0.135112 -0.00171936 0)
(0.136158 -0.00174017 0)
(0.137196 -0.00175907 0)
(0.138223 -0.00177589 0)
(0.139239 -0.0017904 0)
(0.140243 -0.00180237 0)
(0.141233 -0.00181153 0)
(0.142208 -0.00181759 0)
(0.143167 -0.00182019 0)
(0.144107 -0.00181894 0)
(0.145028 -0.0018134 0)
(0.145928 -0.00180304 0)
(0.146804 -0.00178725 0)
(0.147656 -0.00176534 0)
(0.14848 -0.00173647 0)
(0.149274 -0.00169968 0)
(0.150036 -0.00165382 0)
(0.150763 -0.00159751 0)
(0.151451 -0.0015291 0)
(0.152098 -0.00144658 0)
(0.152698 -0.00134752 0)
(0.153247 -0.0012289 0)
(0.153741 -0.001087 0)
(0.154172 -0.000917113 0)
(0.154534 -0.000713315 0)
(0.154818 -0.000468 0)
(0.155016 -0.00017134 0)
(0.155116 0.000189468 0)
(0.155106 0.000631405 0)
(0.154973 0.00117737 0)
(0.154701 0.00185843 0)
(0.154276 0.00271702 0)
(0.153686 0.00381136 0)
(0.152927 0.00522114 0)
(0.152011 0.00705362 0)
(0.150988 0.00944696 0)
(0.14997 0.0125613 0)
(0.149178 0.0165343 0)
(0.149 0.0213281 0)
(0.149991 0.0262919 0)
(0.100026 -0.000102778 0)
(0.100174 -0.000196978 0)
(0.100416 -0.000282635 0)
(0.100733 -0.000361813 0)
(0.101118 -0.000436251 0)
(0.101565 -0.000507005 0)
(0.102067 -0.000574772 0)
(0.10262 -0.000640094 0)
(0.10322 -0.000703382 0)
(0.103863 -0.000764953 0)
(0.104545 -0.00082506 0)
(0.105264 -0.000883909 0)
(0.106016 -0.000941662 0)
(0.1068 -0.000998454 0)
(0.107613 -0.00105439 0)
(0.108453 -0.00110956 0)
(0.109318 -0.00116403 0)
(0.110207 -0.00121785 0)
(0.111116 -0.00127106 0)
(0.112046 -0.00132369 0)
(0.112994 -0.00137574 0)
(0.113958 -0.00142724 0)
(0.114938 -0.00147817 0)
(0.115932 -0.00152853 0)
(0.116939 -0.00157829 0)
(0.117956 -0.00162743 0)
(0.118984 -0.00167591 0)
(0.120021 -0.00172371 0)
(0.121066 -0.00177077 0)
(0.122117 -0.00181704 0)
(0.123174 -0.00186246 0)
(0.124234 -0.00190697 0)
(0.125298 -0.00195048 0)
(0.126364 -0.00199292 0)
(0.127431 -0.0020342 0)
(0.128498 -0.00207422 0)
(0.129564 -0.00211287 0)
(0.130628 -0.00215003 0)
(0.131688 -0.00218556 0)
(0.132743 -0.00221932 0)
(0.133793 -0.00225114 0)
(0.134837 -0.00228086 0)
(0.135873 -0.00230826 0)
(0.1369 -0.00233313 0)
(0.137917 -0.00235523 0)
(0.138922 -0.00237426 0)
(0.139915 -0.00238993 0)
(0.140895 -0.00240189 0)
(0.141859 -0.00240973 0)
(0.142807 -0.00241301 0)
(0.143737 -0.00241122 0)
(0.144647 -0.00240377 0)
(0.145536 -0.00238999 0)
(0.146403 -0.0023691 0)
(0.147245 -0.00234019 0)
(0.14806 -0.00230221 0)
(0.148846 -0.00225392 0)
(0.149601 -0.00219386 0)
(0.150322 -0.00212029 0)
(0.151006 -0.00203114 0)
(0.15165 -0.00192392 0)
(0.152251 -0.00179562 0)
(0.152804 -0.00164255 0)
(0.153306 -0.00146019 0)
(0.153752 -0.00124294 0)
(0.154135 -0.00098383 0)
(0.154452 -0.000674064 0)
(0.154694 -0.000302534 0)
(0.154856 0.00014486 0)
(0.154932 0.000686027 0)
(0.154915 0.00134428 0)
(0.154803 0.00214974 0)
(0.154595 0.00314118 0)
(0.154301 0.00436799 0)
(0.153942 0.0058917 0)
(0.153562 0.0077856 0)
(0.153241 0.0101289 0)
(0.153106 0.0129882 0)
(0.153352 0.0163717 0)
(0.154227 0.0201321 0)
(0.155955 0.0237958 0)
(0.100023 -0.000127591 0)
(0.100168 -0.000247038 0)
(0.100405 -0.000355319 0)
(0.100716 -0.00045555 0)
(0.101096 -0.000549771 0)
(0.101537 -0.000639299 0)
(0.102034 -0.000725026 0)
(0.102581 -0.00080764 0)
(0.103175 -0.000887662 0)
(0.103812 -0.000965497 0)
(0.104488 -0.00104147 0)
(0.105201 -0.00111583 0)
(0.105947 -0.0011888 0)
(0.106724 -0.00126054 0)
(0.10753 -0.00133118 0)
(0.108364 -0.00140085 0)
(0.109221 -0.00146961 0)
(0.110102 -0.00153755 0)
(0.111005 -0.0016047 0)
(0.111926 -0.0016711 0)
(0.112866 -0.00173677 0)
(0.113823 -0.00180171 0)
(0.114794 -0.00186594 0)
(0.115779 -0.00192941 0)
(0.116777 -0.00199213 0)
(0.117786 -0.00205405 0)
(0.118805 -0.00211513 0)
(0.119832 -0.00217532 0)
(0.120867 -0.00223457 0)
(0.121908 -0.00229281 0)
(0.122954 -0.00234996 0)
(0.124005 -0.00240593 0)
(0.125058 -0.00246064 0)
(0.126113 -0.00251398 0)
(0.127169 -0.00256584 0)
(0.128224 -0.00261609 0)
(0.129278 -0.00266459 0)
(0.13033 -0.0027112 0)
(0.131378 -0.00275574 0)
(0.132421 -0.00279803 0)
(0.133459 -0.00283787 0)
(0.13449 -0.00287504 0)
(0.135513 -0.00290928 0)
(0.136527 -0.00294032 0)
(0.137531 -0.00296785 0)
(0.138524 -0.00299153 0)
(0.139503 -0.00301098 0)
(0.14047 -0.00302576 0)
(0.141421 -0.00303538 0)
(0.142356 -0.00303929 0)
(0.143273 -0.00303687 0)
(0.14417 -0.00302739 0)
(0.145048 -0.00301004 0)
(0.145902 -0.00298387 0)
(0.146733 -0.00294779 0)
(0.147538 -0.00290053 0)
(0.148315 -0.00284062 0)
(0.149061 -0.00276631 0)
(0.149776 -0.00267557 0)
(0.150456 -0.00256597 0)
(0.151099 -0.00243464 0)
(0.151702 -0.0022781 0)
(0.152262 -0.00209222 0)
(0.152776 -0.00187195 0)
(0.153241 -0.00161115 0)
(0.153653 -0.00130233 0)
(0.154008 -0.000936275 0)
(0.154305 -0.000501624 0)
(0.154541 1.55997e-05 0)
(0.154715 0.000632275 0)
(0.154828 0.0013693 0)
(0.154885 0.00225227 0)
(0.154899 0.00331186 0)
(0.154888 0.00458381 0)
(0.154888 0.00610777 0)
(0.15495 0.00792374 0)
(0.155152 0.0100641 0)
(0.155598 0.0125374 0)
(0.156422 0.0152996 0)
(0.15776 0.0182084 0)
(0.159688 0.0209709 0)
(0.10002 -0.000153115 0)
(0.100162 -0.00029924 0)
(0.100393 -0.000431518 0)
(0.100698 -0.000554155 0)
(0.101071 -0.000669466 0)
(0.101506 -0.000779009 0)
(0.101996 -0.000883878 0)
(0.102536 -0.000984914 0)
(0.103123 -0.00108276 0)
(0.103753 -0.0011779 0)
(0.104421 -0.00127074 0)
(0.105126 -0.0013616 0)
(0.105864 -0.00145074 0)
(0.106634 -0.00153835 0)
(0.107432 -0.00162461 0)
(0.108256 -0.00170965 0)
(0.109105 -0.00179357 0)
(0.109977 -0.00187646 0)
(0.11087 -0.00195838 0)
(0.111783 -0.00203936 0)
(0.112713 -0.00211943 0)
(0.113659 -0.00219859 0)
(0.11462 -0.00227685 0)
(0.115595 -0.00235419 0)
(0.116582 -0.00243058 0)
(0.11758 -0.00250597 0)
(0.118587 -0.00258032 0)
(0.119603 -0.00265356 0)
(0.120626 -0.00272563 0)
(0.121655 -0.00279644 0)
(0.122689 -0.0028659 0)
(0.123726 -0.0029339 0)
(0.124767 -0.00300034 0)
(0.125809 -0.00306509 0)
(0.126851 -0.00312801 0)
(0.127893 -0.00318894 0)
(0.128933 -0.00324772 0)
(0.12997 -0.00330416 0)
(0.131004 -0.00335807 0)
(0.132033 -0.00340922 0)
(0.133056 -0.00345736 0)
(0.134072 -0.00350222 0)
(0.13508 -0.00354351 0)
(0.136078 -0.00358089 0)
(0.137067 -0.003614 0)
(0.138044 -0.00364243 0)
(0.139008 -0.00366572 0)
(0.139959 -0.00368335 0)
(0.140895 -0.00369475 0)
(0.141815 -0.00369926 0)
(0.142717 -0.00369616 0)
(0.1436 -0.00368459 0)
(0.144463 -0.00366362 0)
(0.145305 -0.00363213 0)
(0.146123 -0.00358889 0)
(0.146916 -0.00353243 0)
(0.147683 -0.00346108 0)
(0.148422 -0.00337289 0)
(0.149131 -0.00326558 0)
(0.149808 -0.00313649 0)
(0.150451 -0.00298246 0)
(0.151058 -0.00279978 0)
(0.151627 -0.00258407 0)
(0.152157 -0.00233007 0)
(0.152645 -0.00203157 0)
(0.15309 -0.00168112 0)
(0.153492 -0.00126982 0)
(0.15385 -0.000787091 0)
(0.154166 -0.000220377 0)
(0.154444 0.000444921 0)
(0.154689 0.00122529 0)
(0.154912 0.00213989 0)
(0.155131 0.00320974 0)
(0.15537 0.00445666 0)
(0.155664 0.00590103 0)
(0.156059 0.00755791 0)
(0.156619 0.00943045 0)
(0.157415 0.0114999 0)
(0.158526 0.0137112 0)
(0.160019 0.0159568 0)
(0.16191 0.0180665 0)
(0.100017 -0.000179375 0)
(0.100155 -0.000353537 0)
(0.10038 -0.000511187 0)
(0.100679 -0.00065759 0)
(0.101045 -0.000795324 0)
(0.101472 -0.000926162 0)
(0.101954 -0.0010514 0)
(0.102486 -0.00117203 0)
(0.103065 -0.00128882 0)
(0.103685 -0.00140236 0)
(0.104345 -0.00151312 0)
(0.105041 -0.00162149 0)
(0.10577 -0.00172777 0)
(0.10653 -0.00183222 0)
(0.107318 -0.00193502 0)
(0.108132 -0.00203634 0)
(0.108971 -0.00213631 0)
(0.109832 -0.00223501 0)
(0.110714 -0.00233253 0)
(0.111615 -0.00242891 0)
(0.112533 -0.00252418 0)
(0.113468 -0.00261835 0)
(0.114417 -0.0027114 0)
(0.115379 -0.00280334 0)
(0.116353 -0.0028941 0)
(0.117338 -0.00298366 0)
(0.118332 -0.00307194 0)
(0.119334 -0.00315888 0)
(0.120343 -0.00324439 0)
(0.121358 -0.00332837 0)
(0.122377 -0.00341072 0)
(0.1234 -0.0034913 0)
(0.124425 -0.00356999 0)
(0.125452 -0.00364663 0)
(0.126478 -0.00372106 0)
(0.127504 -0.0037931 0)
(0.128528 -0.00386255 0)
(0.129549 -0.00392919 0)
(0.130566 -0.00399279 0)
(0.131578 -0.00405308 0)
(0.132584 -0.00410977 0)
(0.133582 -0.00416256 0)
(0.134573 -0.00421109 0)
(0.135554 -0.00425497 0)
(0.136525 -0.00429379 0)
(0.137484 -0.00432705 0)
(0.138431 -0.00435424 0)
(0.139365 -0.00437477 0)
(0.140283 -0.00438798 0)
(0.141186 -0.00439312 0)
(0.142072 -0.00438935 0)
(0.142939 -0.00437575 0)
(0.143787 -0.00435123 0)
(0.144614 -0.00431458 0)
(0.145419 -0.00426441 0)
(0.1462 -0.00419913 0)
(0.146957 -0.00411694 0)
(0.147688 -0.00401572 0)
(0.148391 -0.00389306 0)
(0.149065 -0.00374617 0)
(0.149709 -0.00357181 0)
(0.150322 -0.0033662 0)
(0.150903 -0.00312497 0)
(0.151452 -0.00284304 0)
(0.151967 -0.00251449 0)
(0.152449 -0.00213247 0)
(0.152901 -0.00168909 0)
(0.153323 -0.00117531 0)
(0.15372 -0.000580865 0)
(0.1541 0.000105711 0)
(0.15447 0.000896015 0)
(0.154844 0.00180229 0)
(0.15524 0.00283662 0)
(0.155681 0.00400932 0)
(0.156198 0.00532688 0)
(0.156827 0.00678893 0)
(0.157612 0.00838422 0)
(0.158597 0.0100855 0)
(0.159824 0.0118443 0)
(0.161321 0.0135869 0)
(0.163083 0.0152169 0)
(0.100014 -0.000206408 0)
(0.100149 -0.000409902 0)
(0.100368 -0.000594291 0)
(0.100659 -0.000765813 0)
(0.101017 -0.000927317 0)
(0.101435 -0.00108076 0)
(0.101909 -0.00122761 0)
(0.102432 -0.00136905 0)
(0.103 -0.00150594 0)
(0.103611 -0.001639 0)
(0.104261 -0.00176877 0)
(0.104946 -0.00189569 0)
(0.105664 -0.00202013 0)
(0.106412 -0.00214239 0)
(0.107189 -0.00226269 0)
(0.107991 -0.00238122 0)
(0.108818 -0.00249813 0)
(0.109667 -0.00261353 0)
(0.110536 -0.0027275 0)
(0.111424 -0.00284011 0)
(0.112329 -0.00295138 0)
(0.11325 -0.00306133 0)
(0.114185 -0.00316994 0)
(0.115133 -0.0032772 0)
(0.116092 -0.00338306 0)
(0.117062 -0.00348747 0)
(0.11804 -0.00359035 0)
(0.119026 -0.00369162 0)
(0.120019 -0.00379117 0)
(0.121018 -0.00388891 0)
(0.12202 -0.00398468 0)
(0.123026 -0.00407837 0)
(0.124034 -0.00416979 0)
(0.125043 -0.00425879 0)
(0.126051 -0.00434516 0)
(0.127059 -0.00442871 0)
(0.128064 -0.00450919 0)
(0.129067 -0.00458637 0)
(0.130065 -0.00465995 0)
(0.131057 -0.00472966 0)
(0.132044 -0.00479514 0)
(0.133023 -0.00485606 0)
(0.133994 -0.00491199 0)
(0.134955 -0.00496252 0)
(0.135907 -0.00500715 0)
(0.136847 -0.00504536 0)
(0.137774 -0.00507654 0)
(0.138688 -0.00510004 0)
(0.139588 -0.00511514 0)
(0.140472 -0.005121 0)
(0.14134 -0.00511671 0)
(0.14219 -0.00510125 0)
(0.143021 -0.00507345 0)
(0.143833 -0.00503201 0)
(0.144624 -0.00497547 0)
(0.145393 -0.00490213 0)
(0.146139 -0.00481013 0)
(0.146862 -0.00469729 0)
(0.14756 -0.00456118 0)
(0.148233 -0.004399 0)
(0.14888 -0.00420758 0)
(0.149501 -0.00398333 0)
(0.150095 -0.00372213 0)
(0.150664 -0.00341935 0)
(0.151208 -0.00306977 0)
(0.151729 -0.00266756 0)
(0.15223 -0.00220628 0)
(0.152715 -0.00167889 0)
(0.15319 -0.00107789 0)
(0.153663 -0.000395449 0)
(0.154143 0.000376418 0)
(0.154644 0.0012432 0)
(0.155182 0.00220998 0)
(0.155776 0.00327906 0)
(0.15645 0.00444848 0)
(0.15723 0.00571018 0)
(0.158142 0.00704803 0)
(0.159212 0.0084359 0)
(0.16046 0.00983638 0)
(0.161894 0.0112014 0)
(0.163503 0.0124766 0)
(0.100011 -0.000234254 0)
(0.100143 -0.000468318 0)
(0.100356 -0.000680801 0)
(0.100639 -0.000878786 0)
(0.100988 -0.00106541 0)
(0.101397 -0.00124276 0)
(0.10186 -0.00141252 0)
(0.102373 -0.00157598 0)
(0.102931 -0.00173418 0)
(0.10353 -0.00188789 0)
(0.104168 -0.00203777 0)
(0.104841 -0.00218432 0)
(0.105547 -0.00232795 0)
(0.106283 -0.00246902 0)
(0.107046 -0.00260779 0)
(0.107835 -0.00274447 0)
(0.108648 -0.00287923 0)
(0.109483 -0.00301221 0)
(0.110337 -0.00314351 0)
(0.11121 -0.00327317 0)
(0.1121 -0.00340125 0)
(0.113005 -0.00352776 0)
(0.113924 -0.00365268 0)
(0.114856 -0.003776 0)
(0.115798 -0.00389765 0)
(0.116751 -0.00401758 0)
(0.117712 -0.00413571 0)
(0.11868 -0.00425192 0)
(0.119655 -0.00436612 0)
(0.120635 -0.00447816 0)
(0.121619 -0.0045879 0)
(0.122605 -0.00469518 0)
(0.123593 -0.00479981 0)
(0.124582 -0.00490159 0)
(0.125571 -0.00500031 0)
(0.126558 -0.00509573 0)
(0.127543 -0.00518759 0)
(0.128524 -0.0052756 0)
(0.129501 -0.00535945 0)
(0.130473 -0.0054388 0)
(0.131438 -0.0055133 0)
(0.132395 -0.00558252 0)
(0.133345 -0.00564603 0)
(0.134285 -0.00570334 0)
(0.135214 -0.00575392 0)
(0.136133 -0.00579718 0)
(0.137039 -0.00583248 0)
(0.137932 -0.0058591 0)
(0.138812 -0.00587624 0)
(0.139676 -0.00588303 0)
(0.140524 -0.00587849 0)
(0.141356 -0.00586154 0)
(0.14217 -0.00583096 0)
(0.142966 -0.00578541 0)
(0.143742 -0.00572337 0)
(0.144499 -0.00564315 0)
(0.145235 -0.00554286 0)
(0.14595 -0.0054204 0)
(0.146643 -0.00527339 0)
(0.147315 -0.00509919 0)
(0.147966 -0.00489486 0)
(0.148595 -0.00465714 0)
(0.149204 -0.00438244 0)
(0.149794 -0.00406681 0)
(0.150367 -0.00370596 0)
(0.150926 -0.00329535 0)
(0.151474 -0.00283018 0)
(0.152016 -0.00230558 0)
(0.152559 -0.00171675 0)
(0.153111 -0.00105924 0)
(0.153681 -0.000329097 0)
(0.154282 0.0004768 0)
(0.154926 0.00135696 0)
(0.155627 0.002309 0)
(0.156403 0.00332685 0)
(0.157268 0.00439987 0)
(0.15824 0.00551217 0)
(0.159332 0.0066422 0)
(0.160549 0.00776311 0)
(0.161894 0.00884421 0)
(0.163355 0.00985438 0)
(0.100007 -0.00026295 0)
(0.100137 -0.000528775 0)
(0.100343 -0.000770688 0)
(0.100618 -0.000996463 0)
(0.100958 -0.00120953 0)
(0.101357 -0.00141213 0)
(0.101809 -0.00160606 0)
(0.102311 -0.00179281 0)
(0.102857 -0.0019735 0)
(0.103444 -0.00214903 0)
(0.104068 -0.00232014 0)
(0.104728 -0.00248739 0)
(0.10542 -0.00265128 0)
(0.106141 -0.00281217 0)
(0.10689 -0.00297038 0)
(0.107664 -0.00312616 0)
(0.108462 -0.0032797 0)
(0.10928 -0.00343115 0)
(0.110118 -0.00358062 0)
(0.110975 -0.00372818 0)
(0.111847 -0.00387387 0)
(0.112735 -0.00401771 0)
(0.113636 -0.00415969 0)
(0.114549 -0.00429977 0)
(0.115473 -0.00443791 0)
(0.116406 -0.00457402 0)
(0.117348 -0.00470801 0)
(0.118297 -0.00483977 0)
(0.119251 -0.00496917 0)
(0.12021 -0.00509605 0)
(0.121173 -0.00522026 0)
(0.122138 -0.0053416 0)
(0.123105 -0.00545987 0)
(0.124072 -0.00557485 0)
(0.125038 -0.00568629 0)
(0.126003 -0.00579392 0)
(0.126965 -0.00589745 0)
(0.127923 -0.00599657 0)
(0.128877 -0.00609093 0)
(0.129825 -0.00618016 0)
(0.130767 -0.00626386 0)
(0.131701 -0.00634156 0)
(0.132627 -0.00641281 0)
(0.133544 -0.00647706 0)
(0.13445 -0.00653374 0)
(0.135345 -0.00658223 0)
(0.136229 -0.00662182 0)
(0.1371 -0.00665177 0)
(0.137957 -0.00667123 0)
(0.1388 -0.0066793 0)
(0.139629 -0.00667496 0)
(0.140441 -0.0066571 0)
(0.141237 -0.0066245 0)
(0.142016 -0.00657581 0)
(0.142778 -0.00650954 0)
(0.143522 -0.00642404 0)
(0.144247 -0.0063175 0)
(0.144955 -0.00618795 0)
(0.145644 -0.00603321 0)
(0.146316 -0.00585091 0)
(0.14697 -0.00563847 0)
(0.147608 -0.00539313 0)
(0.148231 -0.00511194 0)
(0.148841 -0.0047918 0)
(0.149441 -0.0044295 0)
(0.150033 -0.00402181 0)
(0.150622 -0.0035656 0)
(0.151214 -0.00305797 0)
(0.151813 -0.00249649 0)
(0.152428 -0.00187938 0)
(0.153066 -0.00120584 0)
(0.153737 -0.000476095 0)
(0.154453 0.000308621 0)
(0.155221 0.00114198 0)
(0.156054 0.00201585 0)
(0.156959 0.00291993 0)
(0.157946 0.00384082 0)
(0.159021 0.00476219 0)
(0.160184 0.00566543 0)
(0.161432 0.0065311 0)
(0.162756 0.00734115 0)
(0.100003 -0.00029253 0)
(0.10013 -0.000591261 0)
(0.100331 -0.000863916 0)
(0.100598 -0.00111879 0)
(0.100928 -0.00135962 0)
(0.101316 -0.00158876 0)
(0.101756 -0.00180816 0)
(0.102245 -0.00201942 0)
(0.102778 -0.00222381 0)
(0.103351 -0.00242234 0)
(0.103962 -0.0026158 0)
(0.104607 -0.00280485 0)
(0.105284 -0.00299003 0)
(0.105989 -0.00317177 0)
(0.106722 -0.00335042 0)
(0.107479 -0.00352624 0)
(0.108259 -0.00369948 0)
(0.10906 -0.00387028 0)
(0.10988 -0.00403877 0)
(0.110718 -0.00420504 0)
(0.111572 -0.00436914 0)
(0.11244 -0.00453107 0)
(0.113321 -0.00469083 0)
(0.114214 -0.00484838 0)
(0.115117 -0.00500366 0)
(0.116029 -0.00515659 0)
(0.116949 -0.00530705 0)
(0.117876 -0.00545492 0)
(0.118808 -0.00560005 0)
(0.119744 -0.00574228 0)
(0.120684 -0.00588142 0)
(0.121626 -0.00601726 0)
(0.122569 -0.00614957 0)
(0.123512 -0.00627811 0)
(0.124454 -0.0064026 0)
(0.125394 -0.00652276 0)
(0.126331 -0.00663825 0)
(0.127265 -0.00674873 0)
(0.128193 -0.00685383 0)
(0.129116 -0.00695314 0)
(0.130033 -0.00704622 0)
(0.130942 -0.0071326 0)
(0.131842 -0.00721175 0)
(0.132734 -0.00728313 0)
(0.133615 -0.00734611 0)
(0.134486 -0.00740003 0)
(0.135346 -0.00744419 0)
(0.136193 -0.00747778 0)
(0.137027 -0.00749997 0)
(0.137848 -0.00750983 0)
(0.138655 -0.00750634 0)
(0.139448 -0.0074884 0)
(0.140225 -0.00745482 0)
(0.140987 -0.0074043 0)
(0.141734 -0.00733542 0)
(0.142465 -0.00724665 0)
(0.14318 -0.00713635 0)
(0.14388 -0.00700274 0)
(0.144564 -0.00684393 0)
(0.145235 -0.00665791 0)
(0.145892 -0.00644258 0)
(0.146538 -0.00619575 0)
(0.147173 -0.00591519 0)
(0.1478 -0.0055987 0)
(0.148423 -0.00524412 0)
(0.149043 -0.00484949 0)
(0.149666 -0.00441313 0)
(0.150296 -0.00393377 0)
(0.150938 -0.00341078 0)
(0.151598 -0.0028443 0)
(0.152282 -0.00223547 0)
(0.152999 -0.00158659 0)
(0.153754 -0.000901114 0)
(0.154557 -0.000183239 0)
(0.155412 0.000560015 0)
(0.156325 0.00131795 0)
(0.157298 0.0020795 0)
(0.158334 0.00283291 0)
(0.159431 0.00356569 0)
(0.160584 0.00426567 0)
(0.161788 0.0049223 0)
(0.099999 -0.000323012 0)
(0.100124 -0.000655758 0)
(0.100318 -0.000960432 0)
(0.100576 -0.00124568 0)
(0.100896 -0.00151558 0)
(0.101273 -0.00177255 0)
(0.101701 -0.00201867 0)
(0.102177 -0.00225568 0)
(0.102696 -0.00248497 0)
(0.103254 -0.00270764 0)
(0.103849 -0.00292458 0)
(0.104478 -0.00313652 0)
(0.105138 -0.00334404 0)
(0.105826 -0.00354763 0)
(0.106541 -0.00374768 0)
(0.10728 -0.0039445 0)
(0.108041 -0.00413833 0)
(0.108823 -0.00432935 0)
(0.109623 -0.00451771 0)
(0.11044 -0.00470349 0)
(0.111273 -0.00488676 0)
(0.11212 -0.00506752 0)
(0.112979 -0.00524577 0)
(0.11385 -0.00542146 0)
(0.11473 -0.00559452 0)
(0.115619 -0.00576485 0)
(0.116516 -0.00593235 0)
(0.117419 -0.00609686 0)
(0.118326 -0.00625823 0)
(0.119238 -0.00641627 0)
(0.120153 -0.00657077 0)
(0.121069 -0.00672151 0)
(0.121986 -0.00686823 0)
(0.122903 -0.00701067 0)
(0.123819 -0.00714852 0)
(0.124733 -0.00728147 0)
(0.125643 -0.00740917 0)
(0.12655 -0.00753124 0)
(0.127451 -0.00764729 0)
(0.128347 -0.00775688 0)
(0.129237 -0.00785955 0)
(0.130119 -0.00795478 0)
(0.130992 -0.00804204 0)
(0.131857 -0.00812075 0)
(0.132712 -0.00819028 0)
(0.133557 -0.00824995 0)
(0.134391 -0.00829902 0)
(0.135214 -0.00833672 0)
(0.136024 -0.0083622 0)
(0.136822 -0.00837454 0)
(0.137607 -0.00837276 0)
(0.138379 -0.00835582 0)
(0.139137 -0.00832258 0)
(0.139881 -0.00827184 0)
(0.140612 -0.00820232 0)
(0.141329 -0.00811266 0)
(0.142034 -0.00800143 0)
(0.142725 -0.00786714 0)
(0.143405 -0.00770823 0)
(0.144073 -0.00752313 0)
(0.144732 -0.00731023 0)
(0.145383 -0.00706796 0)
(0.146027 -0.00679482 0)
(0.146668 -0.00648944 0)
(0.147307 -0.00615062 0)
(0.147949 -0.00577747 0)
(0.148596 -0.00536944 0)
(0.149252 -0.00492652 0)
(0.149922 -0.00444926 0)
(0.150611 -0.003939 0)
(0.151323 -0.0033979 0)
(0.152063 -0.00282909 0)
(0.152835 -0.0022367 0)
(0.153645 -0.00162583 0)
(0.154495 -0.00100233 0)
(0.15539 -0.000371971 0)
(0.15633 0.000257441 0)
(0.157314 0.000876887 0)
(0.158341 0.00147629 0)
(0.159405 0.00204779 0)
(0.160501 0.00258527 0)
(0.0999947 -0.000354402 0)
(0.100117 -0.000722233 0)
(0.100306 -0.00106016 0)
(0.100555 -0.00137704 0)
(0.100864 -0.00167724 0)
(0.101229 -0.0019633 0)
(0.101644 -0.00223738 0)
(0.102106 -0.00250136 0)
(0.102609 -0.00275672 0)
(0.103152 -0.00300468 0)
(0.10373 -0.0032462 0)
(0.104342 -0.00348208 0)
(0.104984 -0.00371297 0)
(0.105653 -0.00393941 0)
(0.106349 -0.00416182 0)
(0.107067 -0.00438054 0)
(0.107808 -0.00459584 0)
(0.108569 -0.00480793 0)
(0.109347 -0.00501697 0)
(0.110142 -0.00522304 0)
(0.110952 -0.00542621 0)
(0.111776 -0.00562651 0)
(0.112612 -0.00582391 0)
(0.113458 -0.00601836 0)
(0.114314 -0.0062098 0)
(0.115178 -0.00639811 0)
(0.116049 -0.00658317 0)
(0.116925 -0.00676482 0)
(0.117807 -0.00694288 0)
(0.118692 -0.00711715 0)
(0.119579 -0.0072874 0)
(0.120468 -0.00745339 0)
(0.121358 -0.00761485 0)
(0.122247 -0.00777148 0)
(0.123134 -0.00792296 0)
(0.124019 -0.00806895 0)
(0.124901 -0.00820908 0)
(0.125779 -0.00834296 0)
(0.126652 -0.00847016 0)
(0.127519 -0.00859022 0)
(0.128379 -0.00870267 0)
(0.129233 -0.00880697 0)
(0.130078 -0.00890258 0)
(0.130915 -0.0089889 0)
(0.131742 -0.0090653 0)
(0.13256 -0.00913109 0)
(0.133367 -0.00918557 0)
(0.134164 -0.00922795 0)
(0.134949 -0.00925743 0)
(0.135723 -0.00927313 0)
(0.136485 -0.00927415 0)
(0.137235 -0.00925951 0)
(0.137973 -0.00922819 0)
(0.138699 -0.00917912 0)
(0.139414 -0.00911121 0)
(0.140117 -0.00902331 0)
(0.140809 -0.00891424 0)
(0.141491 -0.00878282 0)
(0.142164 -0.00862789 0)
(0.142828 -0.0084483 0)
(0.143486 -0.00824296 0)
(0.144139 -0.00801089 0)
(0.144789 -0.00775124 0)
(0.145437 -0.00746335 0)
(0.146087 -0.00714682 0)
(0.146742 -0.00680157 0)
(0.147403 -0.00642789 0)
(0.148074 -0.00602656 0)
(0.14876 -0.00559887 0)
(0.149462 -0.00514673 0)
(0.150184 -0.00467269 0)
(0.150929 -0.00417998 0)
(0.151701 -0.0036725 0)
(0.152501 -0.00315479 0)
(0.15333 -0.00263199 0)
(0.154191 -0.0021096 0)
(0.155083 -0.00159324 0)
(0.156006 -0.00108832 0)
(0.156958 -0.000599047 0)
(0.157936 -0.00013069 0)
(0.158934 0.000312649 0)
(0.09999 -0.00038669 0)
(0.100111 -0.000790629 0)
(0.100293 -0.00116297 0)
(0.100533 -0.00151269 0)
(0.100831 -0.0018444 0)
(0.101183 -0.00216076 0)
(0.101585 -0.002464 0)
(0.102031 -0.00275611 0)
(0.102519 -0.00303869 0)
(0.103045 -0.00331304 0)
(0.103605 -0.00358021 0)
(0.104198 -0.00384107 0)
(0.10482 -0.00409633 0)
(0.10547 -0.00434657 0)
(0.106144 -0.00459226 0)
(0.106841 -0.00483376 0)
(0.10756 -0.00507139 0)
(0.108298 -0.00530535 0)
(0.109053 -0.00553583 0)
(0.109824 -0.00576292 0)
(0.110609 -0.0059867 0)
(0.111408 -0.00620719 0)
(0.112218 -0.00642436 0)
(0.113038 -0.00663817 0)
(0.113867 -0.00684853 0)
(0.114704 -0.00705533 0)
(0.115547 -0.00725843 0)
(0.116396 -0.00745765 0)
(0.117249 -0.00765281 0)
(0.118105 -0.00784368 0)
(0.118963 -0.00803003 0)
(0.119823 -0.00821158 0)
(0.120683 -0.00838806 0)
(0.121542 -0.00855913 0)
(0.122399 -0.00872448 0)