/*--------------------------------*- C++ -*----------------------------------*\
| =========                 |                                                 |
| \\      /  F ield         | OpenFOAM: The Open Source CFD Toolbox           |
|  \\    /   O peration     | Version:  2106                                  |
|   \\  /    A nd           | Website:  www.openfoam.com                      |
|    \\/     M anipulation  |                                                 |
\*---------------------------------------------------------------------------*/
FoamFile
{
    version     2.0;
    format      ascii;
    arch        "LSB;label=32;scalar=64";
    class       surfaceScalarField;
    location    "8";
    object      phi;
}
// * * * * * * * * * * * * * * * * * * * * * * * * * * * * * * * * * * * * * //

dimensions      [1 0 -1 0 0 0 0];

oriented        oriented;

internalField   nonuniform List<scalar> 
23692
(
9.31863e-05
-1.06825e-07
9.33797e-05
-1.93411e-07
9.36503e-05
-2.70578e-07
9.39889e-05
-3.38566e-07
9.43884e-05
-3.99485e-07
9.4843e-05
-4.5462e-07
9.53479e-05
-5.04818e-07
9.58987e-05
-5.50765e-07
9.64917e-05
-5.92983e-07
9.71237e-05
-6.31893e-07
9.77916e-05
-6.67844e-07
9.84928e-05
-7.01115e-07
9.92248e-05
-7.31945e-07
9.99854e-05
-7.60534e-07
0.000100773
-7.87055e-07
0.000101584
-8.11652e-07
0.000102419
-8.34451e-07
0.000103274
-8.55561e-07
0.00010415
-8.75073e-07
0.000105043
-8.9307e-07
0.000105952
-9.09624e-07
0.000106877
-9.24796e-07
0.000107816
-9.3864e-07
0.000108767
-9.51205e-07
0.00010973
-9.62533e-07
0.000110703
-9.72662e-07
0.000111685
-9.81623e-07
0.000112674
-9.89443e-07
0.00011367
-9.96149e-07
0.000114672
-1.00176e-06
0.000115679
-1.0063e-06
0.000116688
-1.00978e-06
0.000117701
-1.01221e-06
0.000118714
-1.01361e-06
0.000119728
-1.01397e-06
0.000120742
-1.01331e-06
0.000121754
-1.01162e-06
0.000122763
-1.00891e-06
0.000123768
-1.00516e-06
0.000124768
-1.00038e-06
0.000125763
-9.94542e-07
0.000126751
-9.87633e-07
0.00012773
-9.79635e-07
0.000128701
-9.7052e-07
0.000129661
-9.60256e-07
0.00013061
-9.48801e-07
0.000131546
-9.36109e-07
0.000132468
-9.22124e-07
0.000133375
-9.0678e-07
0.000134265
-8.89995e-07
0.000135137
-8.71678e-07
0.000135989
-8.51716e-07
0.000136819
-8.2998e-07
0.000137625
-8.06313e-07
0.000138406
-7.80532e-07
0.000139158
-7.52415e-07
0.00013988
-7.21699e-07
0.000140568
-6.88067e-07
0.000141219
-6.51135e-07
0.00014183
-6.10435e-07
0.000142395
-5.65394e-07
0.00014291
-5.153e-07
0.00014337
-4.59267e-07
0.000143766
-3.96178e-07
0.00014409
-3.24605e-07
0.000144333
-2.42707e-07
0.000144481
-1.48074e-07
0.000144519
-3.75109e-08
0.000144425
9.33491e-08
0.000144175
2.50604e-07
0.000143732
4.42928e-07
0.000143049
6.82943e-07
0.000142059
9.89537e-07
0.000140667
1.39181e-06
0.000138731
1.93596e-06
0.000136034
2.69749e-06
0.000132231
3.80283e-06
0.000126761
5.46997e-06
0.000118658
8.103e-06
0.000106121
1.2537e-05
2.11878e-05
8.49332e-05
9.97104e-05
-2.18296e-07
9.99162e-05
-3.99202e-07
0.000100205
-5.59178e-07
0.000100566
-6.99878e-07
0.000100993
-8.26001e-07
0.000101478
-9.40129e-07
0.000102018
-1.04403e-06
0.000102606
-1.13912e-06
0.00010324
-1.22649e-06
0.000103915
-1.30701e-06
0.000104628
-1.3814e-06
0.000105378
-1.45024e-06
0.00010616
-1.51403e-06
0.000106972
-1.57317e-06
0.000107813
-1.62804e-06
0.000108681
-1.67892e-06
0.000109573
-1.72607e-06
0.000110487
-1.76973e-06
0.000111422
-1.81008e-06
0.000112376
-1.84729e-06
0.000113348
-1.88151e-06
0.000114336
-1.91288e-06
0.000115339
-1.94149e-06
0.000116356
-1.96746e-06
0.000117384
-1.99086e-06
0.000118423
-2.01178e-06
0.000119472
-2.03028e-06
0.000120529
-2.04642e-06
0.000121593
-2.06025e-06
0.000122664
-2.07182e-06
0.000123739
-2.08117e-06
0.000124817
-2.08832e-06
0.000125898
-2.0933e-06
0.000126981
-2.09614e-06
0.000128064
-2.09684e-06
0.000129146
-2.09542e-06
0.000130226
-2.09188e-06
0.000131304
-2.08621e-06
0.000132377
-2.07841e-06
0.000133445
-2.06846e-06
0.000134507
-2.05632e-06
0.000135562
-2.04198e-06
0.000136607
-2.02538e-06
0.000137643
-2.00648e-06
0.000138668
-1.98519e-06
0.000139681
-1.96145e-06
0.00014068
-1.93515e-06
0.000141664
-1.90619e-06
0.000142632
-1.87441e-06
0.000143582
-1.83967e-06
0.000144512
-1.80177e-06
0.000145421
-1.76048e-06
0.000146306
-1.71554e-06
0.000147167
-1.66663e-06
0.000148
-1.61337e-06
0.000148803
-1.55533e-06
0.000149573
-1.49195e-06
0.000150307
-1.42261e-06
0.000151003
-1.34652e-06
0.000151655
-1.26274e-06
0.00015226
-1.17012e-06
0.000152812
-1.06724e-06
0.000153305
-9.52314e-07
0.000153732
-8.23135e-07
0.000154084
-6.76876e-07
0.000154351
-5.09917e-07
0.000154521
-3.17549e-07
0.000154577
-9.35787e-08
0.0001545
1.70299e-07
0.000154265
4.85519e-07
0.00015384
8.68067e-07
0.000153182
1.34067e-06
0.000152235
1.93633e-06
0.000150923
2.70397e-06
0.000149141
3.71753e-06
0.000146749
5.09019e-06
0.000143556
6.99539e-06
0.000139331
9.69507e-06
0.000133856
1.35785e-05
0.000127262
1.91307e-05
2.61993e-05
0.00012225
0.000106691
-3.33738e-07
0.000106908
-6.17098e-07
0.000107215
-8.65587e-07
0.000107599
-1.08426e-06
0.000108054
-1.2802e-06
0.000108571
-1.45746e-06
0.000109146
-1.61882e-06
0.000109773
-1.76646e-06
0.000110449
-1.9021e-06
0.000111169
-2.0271e-06
0.00011193
-2.14255e-06
0.000112729
-2.24939e-06
0.000113564
-2.34837e-06
0.000114431
-2.44014e-06
0.000115328
-2.52525e-06
0.000116254
-2.60418e-06
0.000117205
-2.67731e-06
0.00011818
-2.74501e-06
0.000119178
-2.80757e-06
0.000120196
-2.86526e-06
0.000121233
-2.91829e-06
0.000122287
-2.96689e-06
0.000123357
-3.01121e-06
0.000124441
-3.05142e-06
0.000125538
-3.08764e-06
0.000126646
-3.12001e-06
0.000127764
-3.14862e-06
0.000128892
-3.17356e-06
0.000130026
-3.19491e-06
0.000131168
-3.21275e-06
0.000132314
-3.22713e-06
0.000133463
-3.2381e-06
0.000134616
-3.24571e-06
0.00013577
-3.24998e-06
0.000136924
-3.25093e-06
0.000138077
-3.24859e-06
0.000139229
-3.24295e-06
0.000140376
-3.23402e-06
0.00014152
-3.22177e-06
0.000142658
-3.20618e-06
0.000143789
-3.18721e-06
0.000144912
-3.16482e-06
0.000146025
-3.13892e-06
0.000147128
-3.10945e-06
0.000148219
-3.07629e-06
0.000149297
-3.03933e-06
0.000150361
-2.99842e-06
0.000151408
-2.95338e-06
0.000152438
-2.904e-06
0.000153448
-2.85004e-06
0.000154438
-2.79121e-06
0.000155404
-2.72716e-06
0.000156346
-2.65749e-06
0.000157261
-2.58172e-06
0.000158147
-2.49928e-06
0.000159002
-2.40951e-06
0.000159821
-2.31158e-06
0.000160603
-2.20456e-06
0.000161344
-2.08726e-06
0.000162039
-1.9583e-06
0.000162685
-1.81596e-06
0.000163276
-1.65814e-06
0.000163806
-1.48225e-06
0.000164268
-1.28507e-06
0.000164654
-1.0625e-06
0.000164953
-8.09391e-07
0.000165155
-5.19073e-07
0.000165244
-1.82914e-07
0.000165204
2.10406e-07
0.000165013
6.76063e-07
0.000164647
1.23474e-06
0.000164073
1.91482e-06
0.000163253
2.75574e-06
0.000162144
3.81281e-06
0.000160698
5.16382e-06
0.000158871
6.91743e-06
0.000156645
9.22092e-06
0.000154081
1.22597e-05
0.000151434
1.62251e-05
0.000149416
2.11485e-05
2.63055e-05
0.00014931
0.000114159
-4.52856e-07
0.000114388
-8.46533e-07
0.000114712
-1.1896e-06
0.00011512
-1.49186e-06
0.000115602
-1.76257e-06
0.000116152
-2.00739e-06
0.000116764
-2.23018e-06
0.000117431
-2.43401e-06
0.000118151
-2.62123e-06
0.000118917
-2.79372e-06
0.000119728
-2.95304e-06
0.000120579
-3.10043e-06
0.000121468
-3.23696e-06
0.000122391
-3.36352e-06
0.000123347
-3.48088e-06
0.000124332
-3.58968e-06
0.000125346
-3.69049e-06
0.000126385
-3.78378e-06
0.000127447
-3.86996e-06
0.000128531
-3.94941e-06
0.000129636
-4.02244e-06
0.000130758
-4.08932e-06
0.000131897
-4.1503e-06
0.000133052
-4.20559e-06
0.00013422
-4.25538e-06
0.000135399
-4.29983e-06
0.00013659
-4.33909e-06
0.00013779
-4.37328e-06
0.000138998
-4.40252e-06
0.000140212
-4.4269e-06
0.000141431
-4.4465e-06
0.000142655
-4.46139e-06
0.000143881
-4.47163e-06
0.000145108
-4.47726e-06
0.000146336
-4.47832e-06
0.000147562
-4.47482e-06
0.000148786
-4.46678e-06
0.000150006
-4.45418e-06
0.000151222
-4.43702e-06
0.000152431
-4.41524e-06
0.000153632
-4.38881e-06
0.000154825
-4.35765e-06
0.000156008
-4.32167e-06
0.00015718
-4.28077e-06
0.000158338
-4.2348e-06
0.000159482
-4.18361e-06
0.000160611
-4.12698e-06
0.000161722
-4.0647e-06
0.000162815
-3.99647e-06
0.000163887
-3.92196e-06
0.000164937
-3.8408e-06
0.000165962
-3.75252e-06
0.000166961
-3.65658e-06
0.000167932
-3.55235e-06
0.000168872
-3.43908e-06
0.000169778
-3.31587e-06
0.000170648
-3.18167e-06
0.000171479
-3.03522e-06
0.000172267
-2.87501e-06
0.000173008
-2.69922e-06
0.000173697
-2.50564e-06
0.000174331
-2.2916e-06
0.000174902
-2.05381e-06
0.000175405
-1.7882e-06
0.000175833
-1.48974e-06
0.000176175
-1.15208e-06
0.000176424
-7.67214e-07
0.000176566
-3.24961e-07
0.000176588
1.87679e-07
0.000176477
7.87495e-07
0.000176215
1.49653e-06
0.000175786
2.34376e-06
0.000175175
3.3672e-06
0.000174371
4.61651e-06
0.000173379
6.15554e-06
0.000172233
8.06365e-06
0.000171022
1.04322e-05
0.000169934
1.33476e-05
0.000169316
1.68432e-05
0.00016969
2.07738e-05
2.45486e-05
0.000171447
0.00012215
-5.7551e-07
0.00012239
-1.08704e-06
0.000122732
-1.53097e-06
0.000123163
-1.92266e-06
0.000123673
-2.27339e-06
0.000124257
-2.59046e-06
0.000124905
-2.87895e-06
0.000125614
-3.1428e-06
0.000126378
-3.38511e-06
0.000127193
-3.60832e-06
0.000128054
-3.81441e-06
0.000128959
-4.00505e-06
0.000129904
-4.1816e-06
0.000130886
-4.34523e-06
0.000131902
-4.49691e-06
0.00013295
-4.63751e-06
0.000134027
-4.76773e-06
0.000135132
-4.88821e-06
0.000136261
-4.99948e-06
0.000137414
-5.10201e-06
0.000138588
-5.19622e-06
0.000139781
-5.28246e-06
0.000140992
-5.36105e-06
0.000142219
-5.43226e-06
0.00014346
-5.49634e-06
0.000144714
-5.5535e-06
0.000145979
-5.60394e-06
0.000147253
-5.6478e-06
0.000148536
-5.68524e-06
0.000149826
-5.71639e-06
0.000151121
-5.74134e-06
0.00015242
-5.76019e-06
0.000153721
-5.77302e-06
0.000155024
-5.77988e-06
0.000156326
-5.78082e-06
0.000157628
-5.77586e-06
0.000158926
-5.76502e-06
0.00016022
-5.74829e-06
0.000161509
-5.72564e-06
0.000162791
-5.69704e-06
0.000164065
-5.66243e-06
0.000165329
-5.62171e-06
0.000166582
-5.57478e-06
0.000167823
-5.5215e-06
0.00016905
-5.4617e-06
0.000170261
-5.39518e-06
0.000171456
-5.32168e-06
0.000172632
-5.24091e-06
0.000173788
-5.15253e-06
0.000174923
-5.05613e-06
0.000176033
-4.95123e-06
0.000177118
-4.83726e-06
0.000178175
-4.71356e-06
0.000179202
-4.57936e-06
0.000180197
-4.43373e-06
0.000181157
-4.27559e-06
0.000182079
-4.10367e-06
0.00018296
-3.91644e-06
0.000183797
-3.7121e-06
0.000184586
-3.4885e-06
0.000185324
-3.24304e-06
0.000186005
-2.9726e-06
0.000186624
-2.67341e-06
0.000187177
-2.34085e-06
0.000187656
-1.96928e-06
0.000188056
-1.55177e-06
0.000188369
-1.07972e-06
0.000188586
-5.42493e-07
0.000188701
7.30614e-08
0.000188705
7.83207e-07
0.000188594
1.60808e-06
0.000188364
2.57297e-06
0.000188023
3.70877e-06
0.000187587
5.05236e-06
0.000187096
6.64608e-06
0.000186625
8.53467e-06
0.0001863
1.07574e-05
0.000186317
1.33302e-05
0.00018695
1.62102e-05
0.000188493
1.92307e-05
2.20065e-05
0.000191035
0.0001307
-7.017e-07
0.000130951
-1.33826e-06
0.00013131
-1.88943e-06
0.000131764
-2.37656e-06
0.000132303
-2.81279e-06
0.00013292
-3.20707e-06
0.000133607
-3.56572e-06
0.000134358
-3.89368e-06
0.000135168
-4.19477e-06
0.000136031
-4.47206e-06
0.000136945
-4.72803e-06
0.000137905
-4.96473e-06
0.000138907
-5.18389e-06
0.000139949
-5.38695e-06
0.000141027
-5.57514e-06
0.000142139
-5.74951e-06
0.000143283
-5.91096e-06
0.000144455
-6.06027e-06
0.000145654
-6.19812e-06
0.000146877
-6.32508e-06
0.000148123
-6.44168e-06
0.000149389
-6.54836e-06
0.000150673
-6.64551e-06
0.000151975
-6.73347e-06
0.000153291
-6.81255e-06
0.000154621
-6.88302e-06
0.000155962
-6.94512e-06
0.000157313
-6.99903e-06
0.000158673
-7.04496e-06
0.00016004
-7.08304e-06
0.000161412
-7.11343e-06
0.000162788
-7.13622e-06
0.000164167
-7.15153e-06
0.000165547
-7.15941e-06
0.000166926
-7.15993e-06
0.000168303
-7.15312e-06
0.000169677
-7.13901e-06
0.000171047
-7.11758e-06
0.00017241
-7.08883e-06
0.000173766
-7.05268e-06
0.000175112
-7.00909e-06
0.000176449
-6.95794e-06
0.000177773
-6.89911e-06
0.000179084
-6.83243e-06
0.00018038
-6.75771e-06
0.00018166
-6.6747e-06
0.000182921
-6.58311e-06
0.000184163
-6.4826e-06
0.000185383
-6.37276e-06
0.000186581
-6.25312e-06
0.000187752
-6.1231e-06
0.000188897
-5.98206e-06
0.000190013
-5.82923e-06
0.000191097
-5.66371e-06
0.000192148
-5.48443e-06
0.000193163
-5.29017e-06
0.000194139
-5.07948e-06
0.000195073
-4.85064e-06
0.000195962
-4.60164e-06
0.000196804
-4.3301e-06
0.000197594
-4.03318e-06
0.000198329
-3.70752e-06
0.000199005
-3.34911e-06
0.000199617
-2.95313e-06
0.000200162
-2.51382e-06
0.000200634
-2.02426e-06
0.000201031
-1.47613e-06
0.000201348
-8.59419e-07
0.000201583
-1.62242e-07
0.000201737
6.29356e-07
0.000201813
1.53135e-06
0.000201824
2.56264e-06
0.000201788
3.74433e-06
0.000201742
5.09872e-06
0.000201741
6.64726e-06
0.000201869
8.40637e-06
0.000202246
1.03802e-05
0.000203028
1.2548e-05
0.000204393
1.48455e-05
0.000206486
1.71378e-05
1.91973e-05
0.000209295
0.000139849
-8.3152e-07
0.000140111
-1.59992e-06
0.000140486
-2.26475e-06
0.000140963
-2.85339e-06
0.000141531
-3.3808e-06
0.000142182
-3.85744e-06
0.000142907
-4.29094e-06
0.000143701
-4.68725e-06
0.000144557
-5.05101e-06
0.000145471
-5.38591e-06
0.000146438
-5.69499e-06
0.000147454
-5.98071e-06
0.000148515
-6.24518e-06
0.000149619
-6.49013e-06
0.000150761
-6.71707e-06
0.000151939
-6.92727e-06
0.00015315
-7.12181e-06
0.000154391
-7.30165e-06
0.000155661
-7.46759e-06
0.000156956
-7.62036e-06
0.000158275
-7.76057e-06
0.000159616
-7.88877e-06
0.000160976
-8.00542e-06
0.000162353
-8.11095e-06
0.000163747
-8.20572e-06
0.000165154
-8.29007e-06
0.000166573
-8.36427e-06
0.000168003
-8.42858e-06
0.000169441
-8.48321e-06
0.000170887
-8.52836e-06
0.000172338
-8.56419e-06
0.000173792
-8.59085e-06
0.000175249
-8.60844e-06
0.000176707
-8.61707e-06
0.000178164
-8.6168e-06
0.000179619
-8.60769e-06
0.00018107
-8.58975e-06
0.000182515
-8.563e-06
0.000183954
-8.5274e-06
0.000185384
-8.48292e-06
0.000186805
-8.42947e-06
0.000188214
-8.36695e-06
0.00018961
-8.2952e-06
0.000190992
-8.21405e-06
0.000192358
-8.12327e-06
0.000193706
-8.02259e-06
0.000195034
-7.91169e-06
0.000196342
-7.79017e-06
0.000197627
-7.65759e-06
0.000198887
-7.51341e-06
0.000200121
-7.35701e-06
0.000201327
-7.18766e-06
0.000202502
-7.0045e-06
0.000203645
-6.80656e-06
0.000204753
-6.59268e-06
0.000205825
-6.36153e-06
0.000206857
-6.11155e-06
0.000207847
-5.84093e-06
0.000208793
-5.54755e-06
0.000209692
-5.22894e-06
0.000210541
-4.8822e-06
0.000211337
-4.50396e-06
0.000212079
-4.09026e-06
0.000212762
-3.63648e-06
0.000213385
-3.1372e-06
0.000213947
-2.58613e-06
0.000214447
-1.97596e-06
0.000214886
-1.29828e-06
0.000215267
-5.43538e-07
0.000215598
2.98907e-07
0.000215889
1.23995e-06
0.000216161
2.29108e-06
0.000216441
3.46371e-06
0.000216772
4.76745e-06
0.000217212
6.20784e-06
0.000217835
7.78297e-06
0.000218737
9.47858e-06
0.000220023
1.12615e-05
0.000221797
1.30719e-05
0.000224119
1.48156e-05
1.63647e-05
0.000226952
0.000149639
-9.6514e-07
0.000149911
-1.87186e-06
0.000150303
-2.65675e-06
0.000150803
-3.35299e-06
0.000151399
-3.97734e-06
0.000152083
-4.54164e-06
0.000152847
-5.05484e-06
0.000153684
-5.52392e-06
0.000154588
-5.95438e-06
0.000155552
-6.3506e-06
0.000156574
-6.71613e-06
0.000157647
-7.05395e-06
0.000158768
-7.36652e-06
0.000159934
-7.65592e-06
0.000161141
-7.92394e-06
0.000162386
-8.17207e-06
0.000163666
-8.40162e-06
0.000164978
-8.61371e-06
0.00016632
-8.80931e-06
0.000167689
-8.98927e-06
0.000169083
-9.15431e-06
0.0001705
-9.3051e-06
0.000171937
-9.44219e-06
0.000173392
-9.56607e-06
0.000174864
-9.6772e-06
0.00017635
-9.77596e-06
0.000177848
-9.86268e-06
0.000179357
-9.93767e-06
0.000180876
-1.00012e-05
0.000182401
-1.00535e-05
0.000183931
-1.00947e-05
0.000185466
-1.01251e-05
0.000187002
-1.01447e-05
0.000188539
-1.01537e-05
0.000190074
-1.01522e-05
0.000191607
-1.01402e-05
0.000193135
-1.01178e-05
0.000194658
-1.00851e-05
0.000196172
-1.00418e-05
0.000197677
-9.98815e-06
0.000199172
-9.92391e-06
0.000200654
-9.849e-06
0.000202122
-9.76328e-06
0.000203575
-9.66654e-06
0.00020501
-9.55856e-06
0.000206427
-9.43902e-06
0.000207823
-9.3076e-06
0.000209197
-9.16387e-06
0.000210547
-9.00734e-06
0.000211871
-8.83745e-06
0.000213167
-8.65354e-06
0.000214434
-8.45483e-06
0.00021567
-8.24043e-06
0.000216873
-8.00932e-06
0.000218041
-7.7603e-06
0.000219171
-7.49201e-06
0.000220263
-7.20287e-06
0.000221313
-6.89106e-06
0.00022232
-6.55449e-06
0.000223282
-6.19076e-06
0.000224197
-5.79711e-06
0.000225063
-5.37039e-06
0.00022588
-4.90701e-06
0.000226646
-4.40285e-06
0.000227362
-3.85331e-06
0.00022803
-3.25321e-06
0.00022865
-2.59681e-06
0.00022923
-1.8779e-06
0.000229776
-1.08983e-06
0.000230301
-2.25711e-07
0.00023082
7.2079e-07
0.000231357
1.75421e-06
0.000231943
2.87801e-06
0.000232617
4.09264e-06
0.000233431
5.39375e-06
0.000234444
6.77007e-06
0.000235722
8.20092e-06
0.00023733
9.65361e-06
0.00023932
1.10813e-05
0.000241713
1.24231e-05
1.36087e-05
0.000244469
0.000160114
-1.10275e-06
0.000160396
-2.15396e-06
0.000160805
-3.06529e-06
0.000161327
-3.87518e-06
0.000161952
-4.60225e-06
0.00016267
-5.25962e-06
0.000163473
-5.85748e-06
0.000164353
-6.4039e-06
0.000165304
-6.90523e-06
0.00016632
-7.36655e-06
0.000167396
-7.79202e-06
0.000168527
-8.1851e-06
0.000169709
-8.54866e-06
0.000170939
-8.88515e-06
0.000172211
-9.19663e-06
0.000173524
-9.48486e-06
0.000174874
-9.75137e-06
0.000176258
-9.99747e-06
0.000177673
-1.02243e-05
0.000179117
-1.04328e-05
0.000180587
-1.06239e-05
0.00018208
-1.07984e-05
0.000183595
-1.09568e-05
0.000185129
-1.10998e-05
0.00018668
-1.12279e-05
0.000188246
-1.13416e-05
0.000189824
-1.14412e-05
0.000191414
-1.15271e-05
0.000193013
-1.15996e-05
0.000194618
-1.1659e-05
0.000196229
-1.17055e-05
0.000197844
-1.17394e-05
0.00019946
-1.17607e-05
0.000201076
-1.17697e-05
0.00020269
-1.17664e-05
0.000204301
-1.1751e-05
0.000205907
-1.17235e-05
0.000207506
-1.16839e-05
0.000209097
-1.16322e-05
0.000210677
-1.15684e-05
0.000212246
-1.14924e-05
0.000213801
-1.1404e-05
0.000215341
-1.13032e-05
0.000216864
-1.11898e-05
0.000218369
-1.10635e-05
0.000219854
-1.09239e-05
0.000221317
-1.07708e-05
0.000222757
-1.06038e-05
0.000224172
-1.04222e-05
0.000225561
-1.02256e-05
0.000226921
-1.00133e-05
0.00022825
-9.78446e-06
0.000229548
-9.53825e-06
0.000230812
-9.27363e-06
0.000232042
-8.98945e-06
0.000233234
-8.68438e-06
0.000234388
-8.3569e-06
0.000235502
-8.00532e-06
0.000236576
-7.62771e-06
0.000237607
-7.22189e-06
0.000238595
-6.78544e-06
0.000239541
-6.31565e-06
0.000240443
-5.80952e-06
0.000241304
-5.26379e-06
0.000242126
-4.67491e-06
0.000242912
-4.03915e-06
0.000243667
-3.35264e-06
0.000244401
-2.61152e-06
0.000245123
-1.81216e-06
0.000245849
-9.51359e-07
0.000246596
-2.66265e-08
0.000247388
9.62489e-07
0.000248253
2.01291e-06
0.000249226
3.11977e-06
0.000250346
4.27385e-06
0.000251655
5.46083e-06
0.000253196
6.66032e-06
0.000255004
7.84531e-06
0.000257103
8.98245e-06
0.000259492
1.00338e-05
1.0961e-05
0.00026214
0.000171323
-1.24457e-06
0.000171615
-2.44616e-06
0.00017204
-3.49024e-06
0.000172585
-4.41977e-06
0.000173238
-5.25535e-06
0.000173989
-6.01122e-06
0.000174831
-6.69878e-06
0.000175754
-7.32716e-06
0.000176753
-7.90361e-06
0.00017782
-8.43394e-06
0.000178951
-8.92291e-06
0.000180141
-9.3745e-06
0.000181384
-9.79201e-06
0.000182677
-1.01783e-05
0.000184017
-1.05356e-05
0.000185398
-1.08662e-05
0.000186818
-1.11716e-05
0.000188275
-1.14535e-05
0.000189764
-1.17131e-05
0.000191283
-1.19516e-05
0.000192829
-1.217e-05
0.0001944
-1.23691e-05
0.000195993
-1.25498e-05
0.000197606
-1.27127e-05
0.000199237
-1.28584e-05
0.000200883
-1.29873e-05
0.000202542
-1.31001e-05
0.000204212
-1.31971e-05
0.000205891
-1.32787e-05
0.000207578
-1.33452e-05
0.000209269
-1.33968e-05
0.000210964
-1.34338e-05
0.00021266
-1.34565e-05
0.000214355
-1.34649e-05
0.000216048
-1.34593e-05
0.000217737
-1.34398e-05
0.00021942
-1.34064e-05
0.000221095
-1.33591e-05
0.000222761
-1.3298e-05
0.000224416
-1.32231e-05
0.000226058
-1.31343e-05
0.000227686
-1.30316e-05
0.000229298
-1.29146e-05
0.000230891
-1.27834e-05
0.000232466
-1.26376e-05
0.000234019
-1.2477e-05
0.000235549
-1.23012e-05
0.000237055
-1.21098e-05
0.000238536
-1.19023e-05
0.000239988
-1.16782e-05
0.000241412
-1.14369e-05
0.000242805
-1.11775e-05
0.000244166
-1.08993e-05
0.000245494
-1.06014e-05
0.000246787
-1.02826e-05
0.000248045
-9.9417e-06
0.000249265
-9.57747e-06
0.000250448
-9.18836e-06
0.000251593
-8.77275e-06
0.0002527
-8.32884e-06
0.00025377
-7.85469e-06
0.000254802
-7.3482e-06
0.0002558
-6.80718e-06
0.000256766
-6.22935e-06
0.000257703
-5.61241e-06
0.000258618
-4.95415e-06
0.000259518
-4.25257e-06
0.000260412
-3.50602e-06
0.000261314
-2.71349e-06
0.000262237
-1.87479e-06
0.000263201
-9.90786e-07
0.000264227
-6.34011e-08
0.000265338
9.02075e-07
0.00026656
1.89737e-06
0.000267923
2.91169e-06
0.000269452
3.93128e-06
0.000271174
4.93891e-06
0.000273104
5.91435e-06
0.000275252
6.83508e-06
0.000277608
7.67804e-06
8.42252e-06
0.000280146
0.000183316
-1.39076e-06
0.000183618
-2.74843e-06
0.00018406
-3.93146e-06
0.000184627
-4.98655e-06
0.000185308
-5.93635e-06
0.000186093
-6.79614e-06
0.000186972
-7.57846e-06
0.000187939
-8.29349e-06
0.000188985
-8.94936e-06
0.000190103
-9.55263e-06
0.000191289
-1.01087e-05
0.000192537
-1.06221e-05
0.000193842
-1.10966e-05
0.000195199
-1.15353e-05
0.000196605
-1.19411e-05
0.000198055
-1.23161e-05
0.000199546
-1.26625e-05
0.000201074
-1.29819e-05
0.000202637
-1.32759e-05
0.000204232
-1.35457e-05
0.000205854
-1.37926e-05
0.000207503
-1.40175e-05
0.000209174
-1.42212e-05
0.000210867
-1.44046e-05
0.000212577
-1.45684e-05
0.000214303
-1.47131e-05
0.000216042
-1.48393e-05
0.000217793
-1.49475e-05
0.000219552
-1.50381e-05
0.000221319
-1.51115e-05
0.00022309
-1.5168e-05
0.000224865
-1.52079e-05
0.00022664
-1.52314e-05
0.000228414
-1.52388e-05
0.000230185
-1.52302e-05
0.000231951
-1.52058e-05
0.00023371
-1.51656e-05
0.000235461
-1.51099e-05
0.000237202
-1.50385e-05
0.00023893
-1.49515e-05
0.000240645
-1.4849e-05
0.000242344
-1.47307e-05
0.000244027
-1.45966e-05
0.00024569
-1.44465e-05
0.000247333
-1.42803e-05
0.000248953
-1.40976e-05
0.00025055
-1.38982e-05
0.000252122
-1.36817e-05
0.000253668
-1.34477e-05
0.000255185
-1.31956e-05
0.000256674
-1.29249e-05
0.000258131
-1.26351e-05
0.000259557
-1.23252e-05
0.00026095
-1.19945e-05
0.00026231
-1.16422e-05
0.000263636
-1.12672e-05
0.000264927
-1.08685e-05
0.000266183
-1.04448e-05
0.000267406
-9.99504e-06
0.000268595
-9.51778e-06
0.000269752
-9.01171e-06
0.000270879
-8.47547e-06
0.000271979
-7.90773e-06
0.000273057
-7.30725e-06
0.000274118
-6.67299e-06
0.000275168
-6.00415e-06
0.000276216
-5.30036e-06
0.000277272
-4.56182e-06
0.000278348
-3.78948e-06
0.000279458
-2.98523e-06
0.000280619
-2.15209e-06
0.00028185
-1.29428e-06
0.000283169
-4.16941e-07
0.000284595
4.71854e-07
0.000286145
1.36182e-06
0.000287835
2.24059e-06
0.000289679
3.09473e-06
0.000291684
3.91e-06
0.000293847
4.6717e-06
0.000296159
5.36605e-06
5.98202e-06
0.000298599
0.000196149
-1.54147e-06
0.000196462
-3.0607e-06
0.000196919
-4.38875e-06
0.000197508
-5.57523e-06
0.000198216
-6.64487e-06
0.000199034
-7.61395e-06
0.000199952
-8.49605e-06
0.000200961
-9.30239e-06
0.000202054
-1.0042e-05
0.000203223
-1.07222e-05
0.000204464
-1.1349e-05
0.000205769
-1.19275e-05
0.000207135
-1.24619e-05
0.000208555
-1.29559e-05
0.000210027
-1.34125e-05
0.000211545
-1.38343e-05
0.000213107
-1.42235e-05
0.000214707
-1.45823e-05
0.000216344
-1.49122e-05
0.000218013
-1.52147e-05
0.000219711
-1.54912e-05
0.000221437
-1.57427e-05
0.000223186
-1.59703e-05
0.000224957
-1.61749e-05
0.000226746
-1.63572e-05
0.000228551
-1.6518e-05
0.00023037
-1.66579e-05
0.0002322
-1.67773e-05
0.000234039
-1.68769e-05
0.000235884
-1.6957e-05
0.000237735
-1.70181e-05
0.000239587
-1.70604e-05
0.00024144
-1.70842e-05
0.000243292
-1.70899e-05
0.000245139
-1.70776e-05
0.000246981
-1.70476e-05
0.000248816
-1.69999e-05
0.000250641
-1.69347e-05
0.000252455
-1.68521e-05
0.000254255
-1.67521e-05
0.000256041
-1.66348e-05
0.000257811
-1.65e-05
0.000259562
-1.63478e-05
0.000261294
-1.61779e-05
0.000263004
-1.59904e-05
0.000264691
-1.57849e-05
0.000266354
-1.55612e-05
0.000267992
-1.5319e-05
0.000269602
-1.5058e-05
0.000271185
-1.47779e-05
0.000272738
-1.4478e-05
0.000274261
-1.4158e-05
0.000275753
-1.38172e-05
0.000277213
-1.34551e-05
0.000278642
-1.30709e-05
0.000280039
-1.2664e-05
0.000281404
-1.22337e-05
0.000282739
-1.1779e-05
0.000284043
-1.12994e-05
0.000285319
-1.0794e-05
0.00028657
-1.02621e-05
0.000287797
-9.70307e-06
0.000289006
-9.11651e-06
0.000290201
-8.50213e-06
0.000291388
-7.85998e-06
0.000292574
-7.19046e-06
0.000293768
-6.49447e-06
0.00029498
-5.77353e-06
0.000296221
-5.02987e-06
0.000297502
-4.26658e-06
0.000298838
-3.48769e-06
0.000300241
-2.69823e-06
0.000301729
-1.90414e-06
0.000303312
-1.11201e-06
0.000305004
-3.29543e-07
0.000306811
4.33891e-07
0.000308737
1.16825e-06
0.000310783
1.86348e-06
0.000312945
2.50975e-06
0.000315212
3.09899e-06
3.62558e-06
0.000317569
0.000209881
-1.69677e-06
0.000210203
-3.38285e-06
0.000210676
-4.86182e-06
0.000211286
-6.18539e-06
0.000212022
-7.38035e-06
0.000212872
-8.46399e-06
0.000213827
-9.45083e-06
0.000214878
-1.03531e-05
0.000216017
-1.11807e-05
0.000217236
-1.19417e-05
0.00021853
-1.26429e-05
0.000219893
-1.32898e-05
0.000221318
-1.38872e-05
0.000222801
-1.4439e-05
0.000224338
-1.49489e-05
0.000225923
-1.54196e-05
0.000227554
-1.58537e-05
0.000229225
-1.62535e-05
0.000230934
-1.66208e-05
0.000232677
-1.69573e-05
0.00023445
-1.72644e-05
0.000236251
-1.75436e-05
0.000238077
-1.77958e-05
0.000239925
-1.80222e-05
0.000241791
-1.82235e-05
0.000243674
-1.84006e-05
0.00024557
-1.85542e-05
0.000247478
-1.86849e-05
0.000249395
-1.87933e-05
0.000251318
-1.88798e-05
0.000253245
-1.8945e-05
0.000255174
-1.89893e-05
0.000257103
-1.90129e-05
0.000259029
-1.90162e-05
0.000260952
-1.89995e-05
0.000262867
-1.8963e-05
0.000264775
-1.8907e-05
0.000266671
-1.88315e-05
0.000268556
-1.87367e-05
0.000270427
-1.86228e-05
0.000272282
-1.84897e-05
0.00027412
-1.83376e-05
0.000275939
-1.81663e-05
0.000277737
-1.79759e-05
0.000279513
-1.77664e-05
0.000281266
-1.75374e-05
0.000282994
-1.7289e-05
0.000284696
-1.70209e-05
0.000286371
-1.6733e-05
0.000288018
-1.64249e-05
0.000289636
-1.60963e-05
0.000291226
-1.5747e-05
0.000292785
-1.53765e-05
0.000294315
-1.49846e-05
0.000295815
-1.45708e-05
0.000297285
-1.41347e-05
0.000298728
-1.3676e-05
0.000300143
-1.31944e-05
0.000301533
-1.26895e-05
0.000302901
-1.21612e-05
0.000304248
-1.16094e-05
0.000305579
-1.10342e-05
0.000306899
-1.04359e-05
0.000308212
-9.81513e-06
0.000309525
-9.17269e-06
0.000310844
-8.50994e-06
0.000312178
-7.82863e-06
0.000313536
-7.13108e-06
0.000314926
-6.4202e-06
0.000316359
-5.69954e-06
0.000317845
-4.97334e-06
0.000319393
-4.24651e-06
0.000321013
-3.52454e-06
0.000322715
-2.81345e-06
0.000324505
-2.11962e-06
0.000326388
-1.44915e-06
0.000328365
-8.08328e-07
0.000330432
-2.03566e-07
0.000332582
3.59042e-07
0.000334807
8.74555e-07
1.33997e-06
0.000337092
0.000224574
-1.85665e-06
0.000224906
-3.7147e-06
0.000225394
-5.35023e-06
0.000226025
-6.81641e-06
0.000226787
-8.14202e-06
0.000227668
-9.34533e-06
0.000228659
-1.04417e-05
0.000229751
-1.14444e-05
0.000230934
-1.23642e-05
0.000232203
-1.32099e-05
0.000233549
-1.39889e-05
0.000234967
-1.47075e-05
0.000236451
-1.53707e-05
0.000237995
-1.59832e-05
0.000239595
-1.65486e-05
0.000241246
-1.70704e-05
0.000242944
-1.75512e-05
0.000244684
-1.79936e-05
0.000246463
-1.83998e-05
0.000248278
-1.87715e-05
0.000250124
-1.91104e-05
0.000251998
-1.9418e-05
0.000253898
-1.96955e-05
0.00025582
-1.9944e-05
0.000257762
-2.01647e-05
0.00025972
-2.03583e-05
0.000261692
-2.05257e-05
0.000263674
-2.06675e-05
0.000265666
-2.07845e-05
0.000267664
-2.08772e-05
0.000269665
-2.09461e-05
0.000271668
-2.09918e-05
0.00027367
-2.10145e-05
0.000275668
-2.10148e-05
0.000277662
-2.09929e-05
0.000279648
-2.09492e-05
0.000281626
-2.08839e-05
0.000283592
-2.07973e-05
0.000285545
-2.06895e-05
0.000287483
-2.05607e-05
0.000289404
-2.04112e-05
0.000291308
-2.02408e-05
0.000293191
-2.00499e-05
0.000295054
-1.98383e-05
0.000296894
-1.96062e-05
0.00029871
-1.93535e-05
0.000300501
-1.90802e-05
0.000302267
-1.87862e-05
0.000304006
-1.84716e-05
0.000305717
-1.81361e-05
0.0003074
-1.77797e-05
0.000309056
-1.74023e-05
0.000310683
-1.70038e-05
0.000312283
-1.65842e-05
0.000313856
-1.61432e-05
0.000315402
-1.5681e-05
0.000316924
-1.51976e-05
0.000318422
-1.46929e-05
0.0003199
-1.41674e-05
0.00032136
-1.36213e-05
0.000322806
-1.3055e-05
0.000324241
-1.24693e-05
0.00032567
-1.18652e-05
0.000327099
-1.12438e-05
0.000328533
-1.06066e-05
0.000329979
-9.95546e-06
0.000331443
-9.2927e-06
0.000332933
-8.62097e-06
0.000334456
-7.94337e-06
0.00033602
-7.26344e-06
0.000337631
-6.58513e-06
0.000339298
-5.91276e-06
0.000341024
-5.25095e-06
0.000342815
-4.60451e-06
0.000344674
-3.9783e-06
0.000346602
-3.37707e-06
0.000348599
-2.80535e-06
0.000350662
-2.26723e-06
0.000352787
-1.7656e-06
0.000354964
-1.30278e-06
-8.80048e-07
0.000357184
0.000240295
-2.02104e-06
0.000240636
-4.05591e-06
0.000241139
-5.85334e-06
0.00024179
-7.46743e-06
0.000242577
-8.92878e-06
0.000243489
-1.02567e-05
0.000244514
-1.14673e-05
0.000245645
-1.25747e-05
0.000246871
-1.35907e-05
0.000248187
-1.45249e-05
0.000249583
-1.53852e-05
0.000251054
-1.61784e-05
0.000252594
-1.69104e-05
0.000254197
-1.75859e-05
0.000255858
-1.82093e-05
0.000257572
-1.87841e-05
0.000259334
-1.93134e-05
0.000261141
-1.98001e-05
0.000262988
-2.02464e-05
0.000264871
-2.06544e-05
0.000266787
-2.1026e-05
0.000268732
-2.13627e-05
0.000270703
-2.16661e-05
0.000272696
-2.19373e-05
0.000274709
-2.21775e-05
0.000276739
-2.23877e-05
0.000278782
-2.25688e-05
0.000280836
-2.27216e-05
0.000282899
-2.28469e-05
0.000284967
-2.29453e-05
0.000287039
-2.30175e-05
0.000289112
-2.30639e-05
0.000291183
-2.30852e-05
0.00029325
-2.30817e-05
0.000295311
-2.30539e-05
0.000297364
-2.30022e-05
0.000299407
-2.29269e-05
0.000301439
-2.28282e-05
0.000303456
-2.27066e-05
0.000305458
-2.25623e-05
0.000307442
-2.23955e-05
0.000309408
-2.22064e-05
0.000311353
-2.19951e-05
0.000313277
-2.1762e-05