/*--------------------------------*- C++ -*----------------------------------*\
| =========                 |                                                 |
| \\      /  F ield         | OpenFOAM: The Open Source CFD Toolbox           |
|  \\    /   O peration     | Version:  2106                                  |
|   \\  /    A nd           | Website:  www.openfoam.com                      |
|    \\/     M anipulation  |                                                 |
\*---------------------------------------------------------------------------*/
FoamFile
{
    version     2.0;
    format      ascii;
    arch        "LSB;label=32;scalar=64";
    class       volScalarField;
    location    "8";
    object      T;
}
// * * * * * * * * * * * * * * * * * * * * * * * * * * * * * * * * * * * * * //

dimensions      [0 0 0 1 0 0 0];

internalField   nonuniform List<scalar> 
12013
(
300.004
300.011
300.018
300.026
300.034
300.043
300.052
300.061
300.07
300.08
300.091
300.101
300.112
300.124
300.135
300.148
300.16
300.173
300.187
300.201
300.215
300.23
300.246
300.262
300.278
300.295
300.312
300.33
300.349
300.368
300.387
300.408
300.428
300.45
300.472
300.495
300.518
300.542
300.567
300.592
300.618
300.645
300.673
300.701
300.73
300.76
300.791
300.823
300.856
300.889
300.924
300.959
300.996
301.033
301.072
301.111
301.152
301.194
301.238
301.282
301.328
301.376
301.424
301.475
301.527
301.581
301.637
301.695
301.755
301.818
301.883
301.951
302.022
302.097
302.177
302.261
302.352
302.45
302.559
302.682
302.83
300.004
300.011
300.018
300.026
300.034
300.043
300.052
300.061
300.07
300.08
300.091
300.101
300.112
300.124
300.135
300.148
300.16
300.173
300.187
300.201
300.215
300.23
300.246
300.262
300.278
300.295
300.312
300.33
300.349
300.368
300.387
300.408
300.428
300.45
300.472
300.495
300.518
300.542
300.567
300.592
300.618
300.645
300.673
300.701
300.73
300.76
300.791
300.823
300.856
300.889
300.924
300.959
300.995
301.033
301.071
301.111
301.152
301.194
301.237
301.282
301.328
301.375
301.424
301.474
301.526
301.58
301.636
301.694
301.754
301.816
301.881
301.949
302.02
302.095
302.173
302.257
302.346
302.442
302.546
302.661
302.787
300.004
300.011
300.018
300.026
300.034
300.043
300.052
300.061
300.07
300.08
300.091
300.101
300.112
300.124
300.135
300.148
300.16
300.173
300.187
300.201
300.215
300.23
300.246
300.262
300.278
300.295
300.312
300.33
300.349
300.368
300.387
300.408
300.428
300.45
300.472
300.494
300.518
300.542
300.567
300.592
300.618
300.645
300.673
300.701
300.73
300.76
300.791
300.823
300.855
300.889
300.923
300.959
300.995
301.032
301.071
301.111
301.151
301.193
301.236
301.281
301.327
301.374
301.423
301.473
301.525
301.579
301.634
301.692
301.751
301.813
301.877
301.945
302.015
302.088
302.165
302.247
302.333
302.425
302.522
302.625
302.733
300.004
300.011
300.018
300.026
300.034
300.043
300.052
300.061
300.07
300.08
300.091
300.101
300.112
300.124
300.135
300.148
300.16
300.173
300.187
300.201
300.215
300.23
300.246
300.261
300.278
300.295
300.312
300.33
300.349
300.368
300.387
300.407
300.428
300.45
300.472
300.494
300.518
300.542
300.566
300.592
300.618
300.645
300.672
300.701
300.73
300.76
300.791
300.822
300.855
300.888
300.923
300.958
300.994
301.032
301.07
301.11
301.15
301.192
301.235
301.279
301.325
301.372
301.421
301.471
301.522
301.576
301.631
301.688
301.747
301.808
301.872
301.938
302.006
302.078
302.153
302.232
302.314
302.4
302.49
302.582
302.675
300.004
300.011
300.018
300.026
300.034
300.043
300.052
300.061
300.07
300.08
300.091
300.101
300.112
300.124
300.135
300.148
300.16
300.173
300.187
300.201
300.215
300.23
300.246
300.261
300.278
300.295
300.312
300.33
300.348
300.368
300.387
300.407
300.428
300.45
300.472
300.494
300.518
300.541
300.566
300.592
300.618
300.644
300.672
300.7
300.729
300.759
300.79
300.822
300.854
300.888
300.922
300.957
300.993
301.031
301.069
301.108
301.149
301.19
301.233
301.277
301.323
301.37
301.418
301.467
301.519
301.571
301.626
301.682
301.74
301.801
301.863
301.928
301.995
302.064
302.136
302.211
302.289
302.369
302.451
302.534
302.616
300.004
300.011
300.018
300.026
300.034
300.043
300.052
300.061
300.07
300.08
300.091
300.101
300.112
300.124
300.135
300.148
300.16
300.173
300.187
300.201
300.215
300.23
300.245
300.261
300.278
300.295
300.312
300.33
300.348
300.367
300.387
300.407
300.428
300.449
300.471
300.494
300.517
300.541
300.566
300.591
300.617
300.644
300.671
300.7
300.729
300.759
300.789
300.821
300.853
300.887
300.921
300.956
300.992
301.029
301.067
301.106
301.147
301.188
301.231
301.275
301.32
301.366
301.414
301.463
301.513
301.566
301.619
301.675
301.732
301.791
301.852
301.915
301.979
302.046
302.115
302.186
302.259
302.333
302.408
302.483
302.557
300.004
300.011
300.018
300.026
300.034
300.043
300.052
300.061
300.07
300.08
300.091
300.101
300.112
300.124
300.135
300.148
300.16
300.173
300.187
300.201
300.215
300.23
300.245
300.261
300.278
300.294
300.312
300.33
300.348
300.367
300.387
300.407
300.428
300.449
300.471
300.494
300.517
300.541
300.565
300.591
300.617
300.643
300.671
300.699
300.728
300.758
300.788
300.82
300.852
300.885
300.919
300.954
300.99
301.027
301.065
301.104
301.144
301.185
301.227
301.271
301.315
301.361
301.408
301.457
301.507
301.558
301.611
301.665
301.721
301.778
301.837
301.898
301.961
302.025
302.09
302.157
302.225
302.293
302.362
302.43
302.497
300.004
300.011
300.018
300.026
300.034
300.043
300.052
300.061
300.07
300.08
300.091
300.101
300.112
300.124
300.135
300.148
300.16
300.173
300.187
300.201
300.215
300.23
300.245
300.261
300.277
300.294
300.312
300.33
300.348
300.367
300.387
300.407
300.427
300.449
300.471
300.493
300.516
300.54
300.565
300.59
300.616
300.643
300.67
300.698
300.727
300.757
300.787
300.818
300.85
300.883
300.917
300.952
300.988
301.025
301.062
301.101
301.14
301.181
301.223
301.266
301.31
301.355
301.402
301.449
301.498
301.549
301.6
301.653
301.708
301.763
301.82
301.879
301.938
301.999
302.061
302.123
302.187
302.25
302.313
302.376
302.437
300.004
300.011
300.018
300.026
300.034
300.043
300.052
300.061
300.07
300.08
300.09
300.101
300.112
300.123
300.135
300.147
300.16
300.173
300.187
300.201
300.215
300.23
300.245
300.261
300.277
300.294
300.311
300.329
300.348
300.367
300.386
300.406
300.427
300.448
300.47
300.493
300.516
300.54
300.564
300.589
300.615
300.642
300.669
300.697
300.726
300.755
300.785
300.817
300.849
300.881
300.915
300.95
300.985
301.021
301.059
301.097
301.136
301.176
301.218
301.26
301.303
301.348
301.394
301.44
301.488
301.537
301.588
301.639
301.691
301.745
301.8
301.856
301.912
301.97
302.028
302.087
302.146
302.204
302.263
302.32
302.377
300.004
300.011
300.018
300.026
300.034
300.043
300.052
300.061
300.07
300.08
300.09
300.101
300.112
300.123
300.135
300.147
300.16
300.173
300.187
300.2
300.215
300.23
300.245
300.261
300.277
300.294
300.311
300.329
300.347
300.366
300.386
300.406
300.427
300.448
300.47
300.492
300.515
300.539
300.563
300.588
300.614
300.64
300.668
300.695
300.724
300.753
300.784
300.814
300.846
300.879
300.912
300.946
300.981
301.017
301.054
301.092
301.131
301.17
301.211
301.253
301.295
301.339
301.384
301.429
301.476
301.524
301.572
301.622
301.673
301.724
301.777
301.83
301.884
301.938
301.993
302.047
302.102
302.157
302.211
302.264
302.316
300.004
300.011
300.018
300.026
300.034
300.043
300.052
300.061
300.07
300.08
300.09
300.101
300.112
300.123
300.135
300.147
300.16
300.173
300.186
300.2
300.215
300.23
300.245
300.261
300.277
300.294
300.311
300.329
300.347
300.366
300.385
300.405
300.426
300.447
300.469
300.491
300.514
300.538
300.562
300.587
300.613
300.639
300.666
300.694
300.722
300.751
300.781
300.812
300.843
300.875
300.908
300.942
300.977
301.013
301.049
301.086
301.124
301.163
301.203
301.244
301.286
301.328
301.372
301.416
301.462
301.508
301.555
301.603
301.651
301.701
301.75
301.801
301.852
301.903
301.954
302.005
302.056
302.107
302.157
302.206
302.255
300.004
300.011
300.018
300.026
300.034
300.043
300.052
300.061
300.07
300.08
300.09
300.101
300.112
300.123
300.135
300.147
300.16
300.173
300.186
300.2
300.214
300.229
300.245
300.26
300.277
300.293
300.311
300.328
300.347
300.365
300.385
300.405
300.425
300.446
300.468
300.49
300.513
300.537
300.561
300.586
300.611
300.637
300.664
300.691
300.72
300.749
300.778
300.809
300.84
300.872
300.904
300.938
300.972
301.007
301.043
301.079
301.117
301.155
301.194
301.234
301.275
301.316
301.358
301.401
301.445
301.49
301.535
301.581
301.627
301.674
301.722
301.769
301.817
301.865
301.913
301.961
302.009
302.056
302.102
302.148
302.193
300.004
300.011
300.018
300.026
300.034
300.043
300.052
300.061
300.07
300.08
300.09
300.101
300.112
300.123
300.135
300.147
300.16
300.173
300.186
300.2
300.214
300.229
300.244
300.26
300.276
300.293
300.31
300.328
300.346
300.365
300.384
300.404
300.424
300.445
300.467
300.489
300.512
300.535
300.559
300.584
300.609
300.635
300.662
300.689
300.717
300.745
300.775
300.805
300.835
300.867
300.899
300.932
300.966
301
301.035
301.071
301.108
301.145
301.183
301.222
301.262
301.302
301.343
301.385
301.427
301.469
301.513
301.557
301.601
301.645
301.69
301.735
301.78
301.825
301.87
301.915
301.959
302.003
302.046
302.089
302.131
300.004
300.011
300.018
300.026
300.034
300.043
300.052
300.061
300.07
300.08
300.09
300.101
300.112
300.123
300.135
300.147
300.159
300.172
300.186
300.2
300.214
300.229
300.244
300.26
300.276
300.292
300.31
300.327
300.345
300.364
300.383
300.403
300.423
300.444
300.466
300.488
300.51
300.534
300.557
300.582
300.607
300.632
300.659
300.686
300.713
300.742
300.771
300.8
300.831
300.862
300.893
300.926
300.959
300.992
301.027
301.062
301.098
301.134
301.171
301.209
301.247
301.286
301.325
301.365
301.406
301.447
301.488
301.53
301.572
301.614
301.656
301.699
301.741
301.783
301.825
301.867
301.909
301.949
301.99
302.029
302.068
300.004
300.011
300.018
300.026
300.034
300.043
300.051
300.061
300.07
300.08
300.09
300.101
300.112
300.123
300.135
300.147
300.159
300.172
300.186
300.199
300.214
300.228
300.243
300.259
300.275
300.292
300.309
300.326
300.345
300.363
300.382
300.402
300.422
300.443
300.464
300.486
300.508
300.531
300.555
300.579
300.604
300.63
300.656
300.682
300.709
300.737
300.766
300.795
300.825
300.855
300.886
300.918
300.95
300.983
301.017
301.051
301.086
301.121
301.157
301.194
301.231
301.268
301.306
301.344
301.383
301.422
301.461
301.501
301.541
301.581
301.621
301.66
301.7
301.74
301.779
301.818
301.857
301.895
301.932
301.969
302.006
300.004
300.011
300.018
300.026
300.034
300.043
300.051
300.061
300.07
300.08
300.09
300.1
300.111
300.123
300.134
300.146
300.159
300.172
300.185
300.199
300.213
300.228
300.243
300.259
300.275
300.291
300.308
300.326
300.344
300.362
300.381
300.401
300.421
300.441
300.462
300.484
300.506
300.529
300.552
300.576
300.601
300.626
300.652
300.678
300.705
300.732
300.76
300.789
300.818
300.848
300.878
300.909
300.941
300.973
301.006
301.039
301.073
301.107
301.141
301.177
301.212
301.248
301.284
301.321
301.358
301.395
301.433
301.47
301.508
301.545
301.583
301.62
301.657
301.695
301.731
301.768
301.804
301.839
301.874
301.909
301.943
300.004
300.011
300.018
300.026
300.034
300.043
300.051
300.06
300.07
300.08
300.09
300.1
300.111
300.122
300.134
300.146
300.159
300.172
300.185
300.199
300.213
300.227
300.242
300.258
300.274
300.29
300.307
300.325
300.342
300.361
300.38
300.399
300.419
300.439
300.46
300.482
300.504
300.526
300.549
300.573
300.597
300.622
300.647
300.673
300.7
300.726
300.754
300.782
300.811
300.84
300.869
300.9
300.93
300.961
300.993
301.025
301.058
301.091
301.124
301.158
301.192
301.226
301.261
301.296
301.331
301.366
301.402
301.437
301.473
301.508
301.543
301.578
301.613
301.648
301.682
301.716
301.75
301.783
301.816
301.848
301.88
300.004
300.011
300.018
300.026
300.034
300.042
300.051
300.06
300.07
300.08
300.09
300.1
300.111
300.122
300.134
300.146
300.158
300.171
300.184
300.198
300.212
300.227
300.242
300.257
300.273
300.289
300.306
300.323
300.341
300.359
300.378
300.397
300.417
300.437
300.458
300.479
300.501
300.523
300.546
300.569
300.593
300.617
300.642
300.668
300.693
300.72
300.747
300.774
300.802
300.83
300.859
300.889
300.918
300.949
300.979
301.01
301.042
301.073
301.105
301.138
301.17
301.203
301.236
301.269
301.302
301.336
301.369
301.403
301.436
301.469
301.502
301.535
301.568
301.6
301.632
301.664
301.696
301.727
301.757
301.787
301.817
300.004
300.011
300.018
300.026
300.034
300.042
300.051
300.06
300.07
300.079
300.089
300.1
300.111
300.122
300.134
300.146
300.158
300.171
300.184
300.197
300.211
300.226
300.241
300.256
300.272
300.288
300.305
300.322
300.34
300.358
300.376
300.395
300.415
300.435
300.455
300.476
300.497
300.519
300.542
300.565
300.588
300.612
300.636
300.661
300.687
300.712
300.739
300.765
300.792
300.82
300.848
300.876
300.905
300.934
300.964
300.994
301.024
301.054
301.085
301.116
301.147
301.178
301.209
301.241
301.272
301.304
301.335
301.367
301.398
301.429
301.46
301.491
301.522
301.552
301.582
301.612
301.641
301.67
301.698
301.726
301.754
300.004
300.011
300.018
300.026
300.034
300.042
300.051
300.06
300.069
300.079
300.089
300.1
300.11
300.122
300.133
300.145
300.157
300.17
300.183
300.197
300.211
300.225
300.24
300.255
300.271
300.287
300.303
300.32
300.338
300.356
300.374
300.393
300.412
300.432
300.452
300.473
300.494
300.515
300.537
300.56
300.583
300.606
300.63
300.654
300.679
300.704
300.73
300.755
300.782
300.809
300.836
300.863
300.891
300.919
300.947
300.976
301.005
301.034
301.063
301.092
301.122
301.151
301.181
301.211
301.24
301.27
301.3
301.329
301.359
301.388
301.417
301.446
301.474
301.503
301.531
301.559
301.586
301.613
301.639
301.666
301.691
300.003
300.011
300.018
300.026
300.034
300.042
300.051
300.06
300.069
300.079
300.089
300.099
300.11
300.121
300.133
300.145
300.157
300.169
300.183
300.196
300.21
300.224
300.239
300.254
300.269
300.285
300.302
300.318
300.336
300.353
300.371
300.39
300.409
300.428
300.448
300.469
300.489
300.511
300.532
300.554
300.577
300.599
300.623
300.646
300.67
300.695
300.72
300.745
300.77
300.796
300.822
300.848
300.875
300.902
300.929
300.956
300.984
301.012
301.039
301.067
301.095
301.123
301.151
301.179
301.208
301.235
301.263
301.291
301.319
301.346
301.373
301.4
301.427
301.453
301.48
301.505
301.531
301.556
301.581
301.605
301.629
300.003
300.011
300.018
300.026
300.034
300.042
300.051
300.06
300.069
300.079
300.089
300.099
300.11
300.121
300.132
300.144
300.156
300.169
300.182
300.195
300.209
300.223
300.237
300.252
300.268
300.284
300.3
300.316
300.333
300.351
300.369
300.387
300.406
300.425
300.444
300.464
300.484
300.505
300.526
300.548
300.57
300.592
300.615
300.638
300.661
300.685
300.709
300.733
300.757
300.782
300.807
300.833
300.858
300.884
300.91
300.936
300.962
300.988
301.015
301.041
301.068
301.094
301.121
301.147
301.174
301.2
301.226
301.252
301.278
301.303
301.329
301.354
301.379
301.404
301.428
301.452
301.476
301.5
301.523
301.546
301.568
300.003
300.011
300.018
300.026
300.034
300.042
300.051
300.059
300.069
300.078
300.088
300.099
300.109
300.12
300.132
300.143
300.155
300.168
300.181
300.194
300.208
300.222
300.236
300.251
300.266
300.282
300.298
300.314
300.331
300.348
300.366
300.384
300.402
300.421
300.44
300.459
300.479
300.499
300.52
300.541
300.562
300.584
300.606
300.628
300.651
300.674
300.697
300.72
300.744
300.768
300.792
300.816
300.84
300.865
300.89
300.914
300.939
300.964
300.989
301.014
301.039
301.064
301.089
301.114
301.139
301.164
301.188
301.212
301.237
301.261
301.284
301.308
301.331
301.354
301.377
301.4
301.422
301.444
301.466
301.487
301.508
300.003
300.011
300.018
300.026
300.033
300.042
300.05
300.059
300.068
300.078
300.088
300.098
300.109
300.12
300.131
300.143
300.155
300.167
300.18
300.193
300.206
300.22
300.234
300.249
300.264
300.279
300.295
300.311
300.328
300.345
300.362
300.38
300.398
300.416
300.435
300.454
300.473
300.493
300.513
300.533
300.554
300.575
300.596
300.618
300.64
300.662
300.684
300.706
300.729
300.752
300.775
300.798
300.822
300.845
300.868
300.892
300.916
300.939
300.963
300.987
301.01
301.034
301.057
301.081
301.104
301.127
301.15
301.173
301.195
301.218
301.24
301.262
301.284
301.305
301.327
301.348
301.369
301.389
301.409
301.429
301.449
300.003
300.01
300.018
300.025
300.033
300.042
300.05
300.059
300.068
300.078
300.087
300.098
300.108
300.119
300.13
300.142
300.154
300.166
300.178
300.191
300.205
300.219
300.233
300.247
300.262
300.277
300.293
300.308
300.325
300.341
300.358
300.375
300.393
300.411
300.429
300.448
300.467
300.486
300.505
300.525
300.545
300.566
300.586
300.607
300.628
300.649
300.671
300.692
300.714
300.736
300.758
300.78
300.802
300.824
300.847
300.869
300.891
300.914
300.936
300.958
300.98
301.003
301.025
301.047
301.068
301.09
301.112
301.133
301.154
301.175
301.196
301.217
301.237
301.257
301.277
301.297
301.316
301.335
301.354
301.373
301.391
300.003
300.01
300.018
300.025
300.033
300.041
300.05
300.059
300.068
300.077
300.087
300.097
300.107
300.118
300.129
300.141
300.153
300.165
300.177
300.19
300.203
300.217
300.231
300.245
300.259
300.274
300.29
300.305
300.321
300.337
300.354
300.371
300.388
300.406
300.423
300.441
300.46
300.479
300.497
300.517
300.536
300.556
300.575
300.595
300.616
300.636
300.656
300.677
300.698
300.719
300.74
300.761
300.782
300.803
300.824
300.845
300.866
300.887
300.909
300.93
300.951
300.971
300.992
301.013
301.033
301.054
301.074
301.094
301.114
301.133
301.153
301.172
301.191
301.21
301.228
301.247
301.265
301.283
301.3
301.318
301.335
300.003
300.01
300.018
300.025
300.033
300.041
300.049
300.058
300.067
300.077
300.086
300.096
300.107
300.117
300.128
300.14
300.151
300.163
300.176
300.188
300.201
300.215
300.228
300.242
300.257
300.271
300.286
300.302
300.317
300.333
300.349
300.366
300.383
300.4
300.417
300.435
300.452
300.471
300.489
300.507
300.526
300.545
300.564
300.583
300.603
300.622
300.642
300.662
300.681
300.701
300.721
300.741
300.761
300.781
300.801
300.821
300.841
300.861
300.881
300.901
300.921
300.94
300.96
300.979
300.998
301.018
301.036
301.055
301.074
301.092
301.11
301.128
301.146
301.164
301.181
301.198
301.215
301.232
301.249
301.265
301.281
300.003
300.01
300.017
300.025
300.033
300.041
300.049
300.058
300.067
300.076
300.086
300.096
300.106
300.116
300.127
300.138
300.15
300.162
300.174
300.187
300.199
300.213
300.226
300.24
300.254
300.268
300.283
300.298
300.313
300.329
300.345
300.361
300.377
300.394
300.41
300.427
300.445
300.462
300.48
300.498
300.516
300.534
300.552
300.571
300.589
300.608
300.627
300.646
300.665
300.684
300.703
300.722
300.741
300.76
300.779
300.797
300.816
300.835
300.854
300.873
300.891
300.91
300.928
300.946
300.964
300.982
301
301.018
301.035
301.052
301.069
301.086
301.103
301.119
301.136
301.152
301.168
301.183
301.199
301.214
301.229
300.003
300.01
300.017
300.025
300.032
300.04
300.049
300.057
300.066
300.075
300.085
300.095
300.105
300.115
300.126
300.137
300.149
300.16
300.172
300.185
300.197
300.21
300.223
300.237
300.251
300.265
300.279
300.294
300.309
300.324
300.339
300.355
300.371
300.387
300.403
300.42
300.437
300.454
300.471
300.488
300.505
300.523
300.54
300.558
300.576
300.594
300.612
300.63
300.648
300.666
300.684
300.702
300.72
300.738
300.756
300.774
300.792
300.81
300.827
300.845
300.862
300.88
300.897
300.914
300.931
300.948
300.965
300.981
300.998
301.014
301.03
301.046
301.061
301.077
301.092
301.107
301.122
301.137
301.151
301.165
301.18
300.003
300.01
300.017
300.025
300.032
300.04
300.048
300.057
300.066
300.075
300.084
300.094
300.104
300.114
300.125
300.136
300.147
300.159
300.17
300.183
300.195
300.208
300.221
300.234
300.248
300.261
300.275
300.29
300.304
300.319
300.334
300.349
300.365
300.381
300.396
300.412
300.429
300.445
300.461
300.478
300.495
300.511
300.528
300.545
300.562
300.58
300.597
300.614
300.631
300.648
300.665
300.683
300.7
300.717
300.734
300.751
300.768
300.785
300.801
300.818
300.835
300.851
300.867
300.884
300.9
300.915
300.931
300.947
300.962
300.977
300.992
301.007
301.022
301.037
301.051
301.065
301.079
301.093
301.106
301.12
301.133
300.003
300.01
300.017
300.024
300.032
300.04
300.048
300.056
300.065
300.074
300.083
300.093
300.103
300.113
300.124
300.134
300.146
300.157
300.169
300.18
300.193
300.205
300.218
300.231
300.244
300.258
300.272
300.285
300.3
300.314
300.329
300.344
300.359
300.374
300.389
300.405
300.42
300.436
300.452
300.468
300.484
300.5
300.516
300.533
300.549
300.565
300.582
300.598
300.615
300.631
300.648
300.664
300.68
300.696
300.713
300.729
300.745
300.761
300.777
300.792
300.808
300.824
300.839
300.854
300.869
300.884
300.899
300.914
300.929
300.943
300.957
300.971
300.985
300.999
301.012
301.026
301.039
301.052
301.065
301.077
301.09
300.003
300.01
300.017
300.024
300.032
300.039
300.047
300.056
300.064
300.073
300.083
300.092
300.102
300.112
300.122
300.133
300.144
300.155
300.167
300.178
300.19
300.203
300.215
300.228
300.241
300.254
300.268
300.281
300.295
300.309
300.323
300.338
300.352
300.367
300.382
300.397
300.412
300.427
300.443
300.458
300.474
300.489
300.505
300.521
300.536
300.552
300.568
300.583
300.599
300.615
300.63
300.646
300.662
300.677
300.693
300.708
300.723
300.738
300.753
300.768
300.783
300.798
300.813
300.827
300.841
300.856
300.87
300.884
300.897
300.911
300.924
300.938
300.951
300.964
300.977
300.989
301.002
301.014
301.026
301.038
301.05
300.003
300.01
300.017
300.024
300.031
300.039
300.047
300.055
300.064
300.073
300.082
300.091
300.101
300.111
300.121
300.131
300.142
300.153
300.165
300.176
300.188
300.2
300.212
300.225
300.237
300.25
300.264
300.277
300.29
300.304
300.318
300.332
300.346
300.361
300.375
300.39
300.404
300.419
300.434
300.449
300.464
300.479
300.494
300.509
300.524
300.539
300.554
300.569
300.584
300.599
300.614
300.629
300.644
300.659
300.674
300.688
300.703
300.717
300.732
300.746
300.76
300.774
300.788
300.802
300.816
300.829
300.843
300.856
300.869
300.882
300.895
300.907
300.92
300.932
300.944
300.956
300.968
300.98
300.991
301.003
301.014
300.003
300.01
300.017
300.024
300.031
300.039
300.047
300.055
300.063
300.072
300.081
300.09
300.1
300.11
300.12
300.13
300.141
300.151
300.163
300.174
300.186
300.197
300.209
300.222
300.234
300.247
300.26
300.273
300.286
300.299
300.313
300.327
300.34
300.354
300.368
300.383
300.397
300.411
300.425
300.44
300.454
300.469
300.483
300.498
300.513
300.527
300.542
300.556
300.571
300.585
300.6
300.614
300.628
300.642
300.657
300.671
300.685
300.699
300.712
300.726
300.739
300.753
300.766
300.779
300.792
300.805
300.818
300.831
300.843
300.856
300.868
300.88
300.892
300.904
300.915
300.927
300.938
300.949
300.96
300.971
300.982
300.003
300.01
300.016
300.023
300.031
300.038
300.046
300.054
300.063
300.071
300.08
300.089
300.099
300.108
300.118
300.129
300.139
300.15
300.161
300.172
300.183
300.195
300.207
300.219
300.231
300.243
300.256
300.269
300.282
300.295
300.308
300.322
300.335
300.349
300.362
300.376
300.39
300.404
300.418
300.432
300.446
300.46
300.474
300.488
300.502
300.516
300.531
300.545
300.559
300.573
300.586
300.6
300.614
300.628
300.641
300.655
300.668
300.682
300.695
300.708
300.721
300.734
300.747
300.76
300.772
300.785
300.797
300.809
300.821
300.833
300.845
300.856
300.868
300.879
300.89
300.901
300.912
300.923
300.933
300.944
300.954
300.003
300.01
300.016
300.023
300.03
300.038
300.046
300.054
300.062
300.07
300.079
300.088
300.098
300.107
300.117
300.127
300.137
300.148
300.159
300.17
300.181
300.193
300.204
300.216
300.228
300.24
300.253
300.265
300.278
300.291
300.304
300.317
300.33
300.343
300.357
300.37
300.384
300.397
300.411
300.425
300.438
300.452
300.466
300.48
300.493
300.507
300.521
300.534
300.548
300.562
300.575
300.588
300.602
300.615
300.628
300.641
300.654
300.667
300.68
300.693
300.706
300.718
300.73
300.743
300.755
300.767
300.779
300.79
300.802
300.814
300.825
300.836
300.847
300.858
300.869
300.879
300.89
300.9
300.91
300.92
300.93
300.003
300.009
300.016
300.023
300.03
300.038
300.045
300.053
300.061
300.07
300.079
300.087
300.097
300.106
300.116
300.126
300.136
300.147
300.157
300.168
300.179
300.191
300.202
300.214
300.226
300.238
300.25
300.262
300.275
300.287
300.3
300.313
300.326
300.339
300.352
300.365
300.379
300.392
300.405
300.419
300.432
300.446
300.459
300.472
300.486
300.499
300.513
300.526
300.539
300.552
300.566
300.579
300.592
300.605
300.618
300.63
300.643
300.656
300.668
300.681
300.693
300.705
300.717
300.729
300.741
300.752
300.764
300.775
300.787
300.798
300.809
300.82
300.831
300.841
300.852
300.862
300.872
300.882
300.892
300.902
300.912
300.003
300.009
300.016
300.023
300.03
300.037
300.045
300.053
300.061
300.069
300.078
300.087
300.096
300.105
300.115
300.125
300.135
300.145
300.156
300.167
300.178
300.189
300.2
300.212
300.224
300.236
300.248
300.26
300.272
300.285
300.297
300.31
300.323
300.336
300.349
300.362
300.375
300.388
300.401
300.414
300.427
300.44
300.454
300.467
300.48
300.493
300.506
300.519
300.532
300.545
300.558
300.571
300.584
300.597
300.609
300.622
300.634
300.647
300.659
300.671
300.683
300.695
300.707
300.718
300.73
300.741
300.753
300.764
300.775
300.786
300.797
300.807
300.818
300.828
300.839
300.849
300.859
300.868
300.878
300.888
300.897
300.003
300.009
300.016
300.023
300.03
300.037
300.045
300.052
300.06
300.069
300.077
300.086
300.095
300.105
300.114
300.124
300.134
300.144
300.155
300.166
300.177
300.188
300.199
300.21
300.222
300.234
300.246
300.258
300.27
300.283
300.295
300.308
300.32
300.333
300.346
300.359
300.372
300.385
300.398
300.411
300.424
300.437
300.45
300.463
300.476
300.489
300.502
300.515
300.528
300.54
300.553
300.566
300.579
300.591
300.604
300.616
300.628
300.64
300.652
300.664
300.676
300.688
300.7
300.711
300.723
300.734
300.745
300.756
300.767
300.778
300.788
300.799
300.809
300.819
300.83
300.839
300.849
300.859
300.869
300.878
300.887
300.003
300.009
300.016
300.023
300.03
300.037
300.044
300.052
300.06
300.068
300.077
300.086
300.095
300.104
300.114
300.124
300.134
300.144
300.154
300.165
300.176
300.187
300.198
300.209
300.221
300.233
300.245
300.257
300.269
300.281
300.294
300.306
300.319
300.331
300.344
300.357
300.37
300.383
300.396
300.409
300.421
300.434
300.447
300.46
300.473
300.486
300.499
300.512
300.525
300.537
300.55
300.563
300.575
300.588
300.6
300.612
300.624
300.637
300.649
300.66
300.672
300.684
300.695
300.707
300.718
300.729
300.74
300.751
300.762
300.773
300.783
300.794
300.804
300.814
300.824
300.834
300.844
300.853
300.863
300.872
300.881
300.003
300.009
300.016
300.023
300.029
300.037
300.044
300.052
300.06
300.068
300.077
300.086
300.095
300.104
300.114
300.123
300.133
300.143
300.154
300.165
300.175
300.186
300.198
300.209
300.221
300.232
300.244
300.256
300.268
300.281
300.293
300.305
300.318
300.331
300.343
300.356
300.369
300.382
300.395
300.408
300.42
300.433
300.446
300.459
300.472
300.485
300.498
300.511
300.523
300.536
300.549
300.561
300.574
300.586
300.598
300.611
300.623
300.635
300.647
300.659
300.67
300.682
300.694
300.705
300.716
300.727
300.738
300.749
300.76
300.771
300.781
300.792
300.802
300.812
300.822
300.832
300.841
300.851
300.861
300.87
300.879
303.025
303.154
303.231
303.303
303.367
303.418
303.453
303.493
303.533
303.57
303.601
303.636
303.671
303.705
303.738
303.771
303.803
303.83
303.86
303.889
303.918
303.948
303.978
304.007
304.036
304.064
304.092
304.12
304.148
304.175
304.202
304.229
304.255
304.281
304.308
304.333
304.359
304.384
304.409
304.434
304.459
304.482
304.508
304.535
304.562
304.587
304.61
304.635
304.662
304.687
304.711
304.734
304.758
304.783
304.809
304.834
304.86
304.886
304.912
304.936
304.957
304.98
305.003
305.028
305.052
305.077
305.102
305.126
305.151
305.175
305.199
305.223
305.246
305.27
305.293
305.317
305.34
305.364
305.386
305.411
305.439
305.465
305.488
305.511
305.533
305.554
305.578
305.605
305.63
305.652
305.672
305.696
305.723
305.745
305.77
305.798
305.822
305.844
305.87
305.894
305.915
305.94
305.961
305.985
306.011
306.039
306.063
306.082
306.106
306.126
306.15
306.175
306.201
306.228
306.251
306.27
306.293
306.318
306.343
306.365
306.382
306.403
306.425
306.447
306.469
306.484
306.503
306.522
306.541
306.56
306.577
306.594
306.609
306.623
306.636
306.648
306.658
306.667
306.674
306.679
306.682
306.684
306.684
306.681
306.676
306.669
306.658
306.645
306.629
306.608
306.581
306.552
306.52
306.484
306.442
306.393
306.339
306.247
306.162
306.055
305.915
302.923
303.037
303.125
303.201
303.266
303.321
303.367
303.411
303.453
303.492
303.529
303.565
303.601
303.636
303.67
303.704
303.736
303.766
303.797
303.827
303.857
303.888
303.918
303.947
303.977
304.006
304.034
304.063
304.091
304.118
304.146
304.173
304.2
304.226
304.253
304.279
304.305
304.331
304.356
304.382
304.407
304.432
304.457
304.484
304.51
304.536
304.56
304.586
304.611
304.637
304.662
304.685
304.71
304.735
304.761
304.786
304.812
304.838
304.863
304.887
304.91
304.933
304.957
304.982
305.006
305.031
305.056
305.081
305.105
305.13
305.154
305.178
305.202
305.226
305.249
305.273
305.297
305.321
305.344
305.369
305.396
305.421
305.445
305.469
305.491
305.513
305.537
305.564
305.588
305.611
305.633
305.657
305.683
305.706
305.731
305.758
305.783
305.806
305.831
305.855
305.878
305.902
305.924
305.949
305.974
306.001
306.025
306.047
306.07
306.091
306.115
306.14
306.166
306.192
306.216
306.236
306.259
306.284
306.308
306.331
306.349
306.37
306.393
306.415
306.436
306.453
306.472
306.491
306.511
306.529
306.547
306.564
306.579
306.594
306.607
306.618
306.629
306.638
306.645
306.65
306.654
306.656
306.656
306.653
306.648
306.641
306.631
306.617
306.601
306.58
306.553
306.523
306.491
306.454
306.411
306.36
306.302
306.213
306.123
306.011
305.858
302.841
302.941
303.027
303.102
303.168
303.227
303.278
303.326
303.37
303.412
303.451
303.489
303.527
303.563
303.599
303.633
303.666
303.699
303.73
303.762
303.793
303.823
303.854
303.884
303.914
303.944
303.973
304.001
304.03
304.058
304.086
304.114
304.141
304.168
304.195
304.221
304.248
304.274
304.3
304.326
304.351
304.377
304.403
304.429
304.456
304.481
304.507
304.532
304.558
304.584
304.609
304.633