/*--------------------------------*- C++ -*----------------------------------*\
| =========                 |                                                 |
| \\      /  F ield         | OpenFOAM: The Open Source CFD Toolbox           |
|  \\    /   O peration     | Version:  2106                                  |
|   \\  /    A nd           | Website:  www.openfoam.com                      |
|    \\/     M anipulation  |                                                 |
\*---------------------------------------------------------------------------*/
FoamFile
{
    version     2.0;
    format      ascii;
    arch        "LSB;label=32;scalar=64";
    class       volVectorField;
    location    "8";
    object      U;
}
// * * * * * * * * * * * * * * * * * * * * * * * * * * * * * * * * * * * * * //

dimensions      [0 1 -1 0 0 0 0];

internalField   nonuniform List<vector> 
12013
(
(0.100039 -1.07727e-05 0)
(0.100197 -1.99352e-05 0)
(0.100453 -2.84494e-05 0)
(0.100785 -3.63166e-05 0)
(0.101185 -4.37211e-05 0)
(0.101648 -5.07671e-05 0)
(0.102168 -5.75198e-05 0)
(0.102739 -6.40326e-05 0)
(0.103358 -7.0345e-05 0)
(0.10402 -7.64877e-05 0)
(0.104722 -8.24863e-05 0)
(0.105462 -8.83602e-05 0)
(0.106237 -9.41253e-05 0)
(0.107043 -9.97951e-05 0)
(0.10788 -0.00010538 0)
(0.108744 -0.000110889 0)
(0.109634 -0.000116327 0)
(0.110547 -0.000121702 0)
(0.111483 -0.000127016 0)
(0.112439 -0.000132271 0)
(0.113414 -0.00013747 0)
(0.114406 -0.000142614 0)
(0.115414 -0.000147701 0)
(0.116436 -0.000152731 0)
(0.117472 -0.000157703 0)
(0.11852 -0.000162614 0)
(0.119578 -0.00016746 0)
(0.120645 -0.000172239 0)
(0.121721 -0.000176945 0)
(0.122803 -0.000181574 0)
(0.123892 -0.000186119 0)
(0.124985 -0.000190575 0)
(0.126082 -0.000194934 0)
(0.127181 -0.000199188 0)
(0.128282 -0.000203328 0)
(0.129382 -0.000207345 0)
(0.130483 -0.000211228 0)
(0.131581 -0.000214964 0)
(0.132676 -0.000218541 0)
(0.133767 -0.000221944 0)
(0.134853 -0.000225157 0)
(0.135932 -0.000228162 0)
(0.137004 -0.000230939 0)
(0.138068 -0.000233466 0)
(0.139121 -0.000235719 0)
(0.140164 -0.000237668 0)
(0.141194 -0.000239282 0)
(0.14221 -0.000240527 0)
(0.143211 -0.000241361 0)
(0.144196 -0.000241737 0)
(0.145162 -0.000241603 0)
(0.146108 -0.000240898 0)
(0.147033 -0.00023955 0)
(0.147934 -0.000237478 0)
(0.148809 -0.000234584 0)
(0.149656 -0.000230755 0)
(0.150472 -0.000225856 0)
(0.151255 -0.000219727 0)
(0.152 -0.000212173 0)
(0.152704 -0.000202961 0)
(0.153363 -0.000191802 0)
(0.153972 -0.000178344 0)
(0.154525 -0.000162142 0)
(0.155015 -0.00014264 0)
(0.155434 -0.000119125 0)
(0.155771 -9.06739e-05 0)
(0.156015 -5.60748e-05 0)
(0.156151 -1.37091e-05 0)
(0.156158 3.86386e-05 0)
(0.156013 0.000104114 0)
(0.155682 0.000187219 0)
(0.155124 0.000294573 0)
(0.154277 0.000436229 0)
(0.153057 0.000627951 0)
(0.15134 0.000895334 0)
(0.148944 0.0012814 0)
(0.14558 0.00186122 0)
(0.140773 0.00277383 0)
(0.133724 0.00432007 0)
(0.123327 0.00738645 0)
(0.111388 0.0161508 0)
(0.100036 -3.28918e-05 0)
(0.100193 -6.11202e-05 0)
(0.100448 -8.72688e-05 0)
(0.100779 -0.000111413 0)
(0.101179 -0.000134138 0)
(0.101641 -0.00015576 0)
(0.102159 -0.000176481 0)
(0.102729 -0.000196463 0)
(0.103347 -0.000215829 0)
(0.104008 -0.000234675 0)
(0.10471 -0.000253075 0)
(0.105449 -0.000271092 0)
(0.106222 -0.000288775 0)
(0.107027 -0.000306165 0)
(0.107863 -0.000323293 0)
(0.108725 -0.000340186 0)
(0.109614 -0.000356864 0)
(0.110526 -0.000373343 0)
(0.11146 -0.000389635 0)
(0.112415 -0.000405748 0)
(0.113388 -0.000421687 0)
(0.114379 -0.000437454 0)
(0.115386 -0.000453048 0)
(0.116407 -0.000468467 0)
(0.117441 -0.000483705 0)
(0.118487 -0.000498755 0)
(0.119543 -0.000513607 0)
(0.120609 -0.000528249 0)
(0.121683 -0.000542669 0)
(0.122763 -0.000556851 0)
(0.12385 -0.000570777 0)
(0.124941 -0.000584426 0)
(0.126036 -0.000597778 0)
(0.127133 -0.000610807 0)
(0.128231 -0.000623487 0)
(0.12933 -0.000635787 0)
(0.130428 -0.000647674 0)
(0.131524 -0.000659113 0)
(0.132617 -0.000670063 0)
(0.133705 -0.000680478 0)
(0.134789 -0.000690311 0)
(0.135866 -0.000699506 0)
(0.136935 -0.000708002 0)
(0.137996 -0.000715731 0)
(0.139047 -0.000722618 0)
(0.140087 -0.000728576 0)
(0.141114 -0.000733509 0)
(0.142128 -0.000737308 0)
(0.143126 -0.000739849 0)
(0.144108 -0.00074099 0)
(0.145072 -0.00074057 0)
(0.146016 -0.000738401 0)
(0.146938 -0.000734268 0)
(0.147836 -0.00072792 0)
(0.148709 -0.000719062 0)
(0.149553 -0.000707349 0)
(0.150367 -0.00069237 0)
(0.151148 -0.000673637 0)
(0.151891 -0.000650562 0)
(0.152594 -0.000622434 0)
(0.153253 -0.000588385 0)
(0.153862 -0.000547342 0)
(0.154416 -0.000497971 0)
(0.154908 -0.000438594 0)
(0.15533 -0.000367069 0)
(0.155674 -0.000280634 0)
(0.155927 -0.000175675 0)
(0.156075 -4.73864e-05 0)
(0.156102 0.00011074 0)
(0.155984 0.0003078 0)
(0.155693 0.000556702 0)
(0.155193 0.000876168 0)
(0.154436 0.00129408 0)
(0.153354 0.00185312 0)
(0.15186 0.00262031 0)
(0.149834 0.00370354 0)
(0.147111 0.00527916 0)
(0.143468 0.00763815 0)
(0.138631 0.0112647 0)
(0.132614 0.0168753 0)
(0.127726 0.0248646 0)
(0.100033 -5.59048e-05 0)
(0.100188 -0.000104837 0)
(0.100441 -0.000149873 0)
(0.10077 -0.000191444 0)
(0.101167 -0.000230564 0)
(0.101627 -0.000267777 0)
(0.102144 -0.000303434 0)
(0.102712 -0.000337817 0)
(0.103327 -0.000371137 0)
(0.103986 -0.000403558 0)
(0.104686 -0.000435212 0)
(0.105422 -0.000466203 0)
(0.106193 -0.000496618 0)
(0.106996 -0.000526526 0)
(0.107829 -0.000555982 0)
(0.108689 -0.000585032 0)
(0.109575 -0.00061371 0)
(0.110485 -0.000642045 0)
(0.111416 -0.000670055 0)
(0.112368 -0.000697756 0)
(0.113338 -0.000725156 0)
(0.114326 -0.000752257 0)
(0.115329 -0.00077906 0)
(0.116347 -0.000805559 0)
(0.117378 -0.000831745 0)
(0.11842 -0.000857605 0)
(0.119473 -0.000883123 0)
(0.120535 -0.000908279 0)
(0.121606 -0.000933048 0)
(0.122683 -0.000957406 0)
(0.123765 -0.000981321 0)
(0.124852 -0.00100476 0)
(0.125943 -0.00102768 0)
(0.127036 -0.00105005 0)
(0.12813 -0.00107181 0)
(0.129224 -0.00109292 0)
(0.130318 -0.00111331 0)
(0.131409 -0.00113293 0)
(0.132497 -0.00115171 0)
(0.133581 -0.00116956 0)
(0.134659 -0.00118641 0)
(0.135731 -0.00120217 0)
(0.136796 -0.00121672 0)
(0.137852 -0.00122995 0)
(0.138897 -0.00124172 0)
(0.139932 -0.00125191 0)
(0.140954 -0.00126033 0)
(0.141962 -0.0012668 0)
(0.142955 -0.00127112 0)
(0.143931 -0.00127303 0)
(0.144889 -0.00127227 0)
(0.145827 -0.00126851 0)
(0.146744 -0.00126139 0)
(0.147637 -0.00125048 0)
(0.148505 -0.00123529 0)
(0.149345 -0.00121522 0)
(0.150154 -0.00118959 0)
(0.15093 -0.00115758 0)
(0.15167 -0.00111819 0)
(0.15237 -0.00107024 0)
(0.153027 -0.00101228 0)
(0.153635 -0.000942518 0)
(0.15419 -0.000858755 0)
(0.154686 -0.000758223 0)
(0.155114 -0.000637421 0)
(0.155468 -0.000491863 0)
(0.155736 -0.000315729 0)
(0.155907 -0.00010137 0)
(0.155966 0.000161408 0)
(0.155894 0.000486538 0)
(0.155672 0.000893384 0)
(0.155271 0.00140925 0)
(0.154659 0.00207331 0)
(0.153798 0.0029428 0)
(0.152644 0.00410239 0)
(0.151151 0.00567811 0)
(0.149288 0.00785585 0)
(0.147058 0.0109003 0)
(0.144576 0.0151591 0)
(0.142272 0.0209357 0)
(0.14142 0.0277113 0)
(0.10003 -7.96116e-05 0)
(0.100183 -0.000150962 0)
(0.100432 -0.000216189 0)
(0.100757 -0.000276432 0)
(0.101152 -0.000333099 0)
(0.101608 -0.000386985 0)
(0.102122 -0.000438609 0)
(0.102686 -0.00048838 0)
(0.103299 -0.000536605 0)
(0.103954 -0.000583523 0)
(0.10465 -0.000629325 0)
(0.105383 -0.000674165 0)
(0.106151 -0.000718165 0)
(0.10695 -0.000761428 0)
(0.107779 -0.000804033 0)
(0.108635 -0.000846045 0)
(0.109517 -0.000887516 0)
(0.110422 -0.000928486 0)
(0.111349 -0.000968983 0)
(0.112297 -0.00100903 0)
(0.113263 -0.00104863 0)
(0.114246 -0.0010878 0)
(0.115244 -0.00112653 0)
(0.116257 -0.00116482 0)
(0.117283 -0.00120265 0)
(0.11832 -0.00124001 0)
(0.119367 -0.00127686 0)
(0.120424 -0.00131319 0)
(0.121489 -0.00134895 0)
(0.12256 -0.00138411 0)
(0.123636 -0.00141863 0)
(0.124718 -0.00145245 0)
(0.125802 -0.00148552 0)
(0.126888 -0.00151777 0)
(0.127976 -0.00154915 0)
(0.129064 -0.00157958 0)
(0.13015 -0.00160897 0)
(0.131234 -0.00163723 0)
(0.132315 -0.00166427 0)
(0.133392 -0.00168997 0)
(0.134463 -0.00171422 0)
(0.135527 -0.00173687 0)
(0.136584 -0.00175778 0)
(0.137632 -0.00177677 0)
(0.13867 -0.00179367 0)
(0.139696 -0.00180826 0)
(0.14071 -0.00182031 0)
(0.14171 -0.00182954 0)
(0.142695 -0.00183566 0)
(0.143663 -0.00183832 0)
(0.144613 -0.00183713 0)
(0.145543 -0.00183163 0)
(0.146452 -0.00182131 0)
(0.147337 -0.00180556 0)
(0.148197 -0.00178368 0)
(0.14903 -0.00175484 0)
(0.149833 -0.00171807 0)
(0.150603 -0.00167221 0)
(0.151338 -0.0016159 0)
(0.152034 -0.00154748 0)
(0.152689 -0.00146494 0)
(0.153297 -0.00136584 0)
(0.153854 -0.00124716 0)
(0.154354 -0.00110517 0)
(0.154793 -0.000935171 0)
(0.155162 -0.000731214 0)
(0.155453 -0.000485686 0)
(0.155658 -0.000188739 0)
(0.155764 0.000172459 0)
(0.155761 0.000614913 0)
(0.155633 0.00116157 0)
(0.155367 0.00184355 0)
(0.154947 0.00270337 0)
(0.154363 0.0037994 0)
(0.153608 0.00521153 0)
(0.152698 0.00704731 0)
(0.151679 0.0094454 0)
(0.150666 0.0125667 0)
(0.149881 0.0165501 0)
(0.149711 0.0213591 0)
(0.150717 0.0263437 0)
(0.100027 -0.000104018 0)
(0.100176 -0.000199406 0)
(0.100421 -0.000286174 0)
(0.100742 -0.000366398 0)
(0.101132 -0.000441833 0)
(0.101585 -0.00051354 0)
(0.102093 -0.000582221 0)
(0.102654 -0.000648421 0)
(0.103261 -0.000712553 0)
(0.103912 -0.000774937 0)
(0.104604 -0.000835828 0)
(0.105332 -0.00089543 0)
(0.106094 -0.000953907 0)
(0.106888 -0.0010114 0)
(0.107712 -0.001068 0)
(0.108563 -0.00112382 0)
(0.109439 -0.0011789 0)
(0.110339 -0.00123331 0)
(0.11126 -0.00128709 0)
(0.112201 -0.00134025 0)
(0.113161 -0.00139283 0)
(0.114137 -0.00144481 0)
(0.115129 -0.00149621 0)
(0.116135 -0.00154701 0)
(0.117154 -0.0015972 0)
(0.118184 -0.00164674 0)
(0.119225 -0.00169561 0)
(0.120274 -0.00174376 0)
(0.12133 -0.00179117 0)
(0.122394 -0.00183776 0)
(0.123462 -0.00188348 0)
(0.124535 -0.00192827 0)
(0.125611 -0.00197205 0)
(0.126689 -0.00201475 0)
(0.127768 -0.00205627 0)
(0.128846 -0.00209651 0)
(0.129923 -0.00213536 0)
(0.130998 -0.00217271 0)
(0.13207 -0.00220843 0)
(0.133136 -0.00224236 0)
(0.134198 -0.00227434 0)
(0.135252 -0.0023042 0)
(0.136298 -0.00233174 0)
(0.137336 -0.00235674 0)
(0.138363 -0.00237895 0)
(0.139379 -0.0023981 0)
(0.140382 -0.00241387 0)
(0.141372 -0.00242592 0)
(0.142346 -0.00243384 0)
(0.143303 -0.00243721 0)
(0.144242 -0.00243549 0)
(0.145162 -0.00242811 0)
(0.146061 -0.00241439 0)
(0.146936 -0.00239354 0)
(0.147787 -0.00236468 0)
(0.148611 -0.00232674 0)
(0.149405 -0.00227848 0)
(0.150169 -0.00221843 0)
(0.150898 -0.00214487 0)
(0.15159 -0.00205572 0)
(0.152242 -0.00194848 0)
(0.152851 -0.00182013 0)
(0.153412 -0.00166699 0)
(0.153921 -0.00148453 0)
(0.154374 -0.00126715 0)
(0.154765 -0.00100785 0)
(0.155088 -0.000697832 0)
(0.155338 -0.000325966 0)
(0.155507 0.000121887 0)
(0.155589 0.000663655 0)
(0.155578 0.00132269 0)
(0.155472 0.00212919 0)
(0.15527 0.00312198 0)
(0.154982 0.00435057 0)
(0.154629 0.00587664 0)
(0.154255 0.00777369 0)
(0.153939 0.0101212 0)
(0.153812 0.0129862 0)
(0.154066 0.0163774 0)
(0.154952 0.020148 0)
(0.156694 0.0238247 0)
(0.100024 -0.000129135 0)
(0.10017 -0.000250089 0)
(0.10041 -0.000359775 0)
(0.100725 -0.000461332 0)
(0.10111 -0.000556814 0)
(0.101557 -0.00064755 0)
(0.10206 -0.000734435 0)
(0.102614 -0.000818161 0)
(0.103216 -0.000899253 0)
(0.103861 -0.000978119 0)
(0.104546 -0.00105508 0)
(0.105268 -0.0011304 0)
(0.106024 -0.00120428 0)
(0.106812 -0.00127691 0)
(0.107628 -0.0013484 0)
(0.108472 -0.00141888 0)
(0.109341 -0.00148843 0)
(0.110234 -0.00155711 0)
(0.111147 -0.00162498 0)
(0.112081 -0.00169206 0)
(0.113033 -0.00175839 0)
(0.114001 -0.00182396 0)
(0.114985 -0.00188878 0)
(0.115982 -0.00195282 0)
(0.116992 -0.00201608 0)
(0.118013 -0.00207851 0)
(0.119044 -0.00214007 0)
(0.120083 -0.00220073 0)
(0.12113 -0.00226041 0)
(0.122184 -0.00231905 0)
(0.123242 -0.00237659 0)
(0.124304 -0.00243293 0)
(0.12537 -0.00248798 0)
(0.126437 -0.00254165 0)
(0.127504 -0.00259381 0)
(0.128571 -0.00264435 0)
(0.129637 -0.00269312 0)
(0.1307 -0.00273997 0)
(0.13176 -0.00278475 0)
(0.132814 -0.00282726 0)
(0.133863 -0.0028673 0)
(0.134905 -0.00290466 0)
(0.135939 -0.00293908 0)
(0.136963 -0.00297028 0)
(0.137977 -0.00299797 0)
(0.13898 -0.00302179 0)
(0.13997 -0.00304137 0)
(0.140947 -0.00305627 0)
(0.141908 -0.00306601 0)
(0.142852 -0.00307003 0)
(0.143779 -0.00306771 0)
(0.144686 -0.00305832 0)
(0.145572 -0.00304105 0)
(0.146436 -0.00301495 0)
(0.147276 -0.00297894 0)
(0.148089 -0.00293174 0)
(0.148875 -0.00287186 0)
(0.14963 -0.00279759 0)
(0.150354 -0.00270687 0)
(0.151042 -0.00259727 0)
(0.151693 -0.00246592 0)
(0.152304 -0.00230935 0)
(0.152872 -0.0021234 0)
(0.153393 -0.00190302 0)
(0.153865 -0.00164208 0)
(0.154284 -0.00133306 0)
(0.154647 -0.000966735 0)
(0.154952 -0.000531729 0)
(0.155194 -1.40392e-05 0)
(0.155375 0.000603273 0)
(0.155494 0.00134112 0)
(0.155558 0.00222514 0)
(0.155578 0.00328607 0)
(0.155575 0.00455972 0)
(0.155581 0.00608583 0)
(0.15565 0.00790451 0)
(0.155858 0.0100483 0)
(0.156313 0.0125258 0)
(0.157146 0.0152934 0)
(0.158494 0.0182087 0)
(0.160436 0.020979 0)
(0.100021 -0.000154973 0)
(0.100164 -0.000302943 0)
(0.100398 -0.00043694 0)
(0.100707 -0.000561201 0)
(0.101085 -0.000678057 0)
(0.101525 -0.000789079 0)
(0.102022 -0.000895367 0)
(0.102569 -0.000997766 0)
(0.103164 -0.00109692 0)
(0.103801 -0.00119333 0)
(0.104479 -0.00128739 0)
(0.105193 -0.00137942 0)
(0.105941 -0.00146968 0)
(0.106721 -0.00155837 0)
(0.107529 -0.00164567 0)
(0.108364 -0.00173171 0)
(0.109225 -0.00181659 0)
(0.110108 -0.0019004 0)
(0.111012 -0.0019832 0)
(0.111936 -0.00206502 0)
(0.112878 -0.0021459 0)
(0.113837 -0.00222583 0)
(0.11481 -0.00230483 0)
(0.115797 -0.00238286 0)
(0.116796 -0.00245991 0)
(0.117806 -0.00253593 0)
(0.118825 -0.00261088 0)
(0.119853 -0.00268469 0)
(0.120888 -0.00275729 0)
(0.12193 -0.00282861 0)
(0.122976 -0.00289855 0)
(0.124025 -0.00296701 0)
(0.125078 -0.00303388 0)
(0.126132 -0.00309903 0)
(0.127186 -0.00316232 0)
(0.128239 -0.00322361 0)
(0.129291 -0.00328272 0)
(0.13034 -0.00333948 0)
(0.131385 -0.00339368 0)
(0.132425 -0.0034451 0)
(0.133459 -0.00349349 0)
(0.134486 -0.0035386 0)
(0.135505 -0.00358011 0)
(0.136514 -0.00361771 0)
(0.137513 -0.00365101 0)
(0.138501 -0.00367962 0)
(0.139475 -0.00370308 0)
(0.140436 -0.00372087 0)
(0.141382 -0.00373242 0)
(0.142312 -0.00373708 0)
(0.143223 -0.0037341 0)
(0.144116 -0.00372266 0)
(0.144989 -0.00370179 0)
(0.14584 -0.00367041 0)
(0.146667 -0.00362725 0)
(0.147469 -0.00357087 0)
(0.148245 -0.00349959 0)
(0.148992 -0.00341145 0)
(0.14971 -0.00330418 0)
(0.150395 -0.00317511 0)
(0.151046 -0.00302108 0)
(0.151661 -0.00283838 0)
(0.152238 -0.0026226 0)
(0.152776 -0.00236852 0)
(0.153272 -0.00206988 0)
(0.153725 -0.00171923 0)
(0.154134 -0.00130768 0)
(0.154499 -0.000824609 0)
(0.154823 -0.000257453 0)
(0.155107 0.000408448 0)
(0.15536 0.00118959 0)
(0.15559 0.00210515 0)
(0.155816 0.00317621 0)
(0.156062 0.00442461 0)
(0.156363 0.00587079 0)
(0.156766 0.00752982 0)
(0.157333 0.00940493 0)
(0.158138 0.0114773 0)
(0.159258 0.0136921 0)
(0.160761 0.0159416 0)
(0.162664 0.0180558 0)
(0.100017 -0.000181558 0)
(0.100157 -0.000357923 0)
(0.100385 -0.000517624 0)
(0.100688 -0.000665968 0)
(0.101058 -0.000805552 0)
(0.101491 -0.000938159 0)
(0.101979 -0.00106509 0)
(0.102519 -0.00118736 0)
(0.103105 -0.00130571 0)
(0.103734 -0.00142077 0)
(0.104402 -0.00153299 0)
(0.105107 -0.00164276 0)
(0.105846 -0.00175039 0)
(0.106616 -0.00185613 0)
(0.107414 -0.00196018 0)
(0.108239 -0.0020627 0)
(0.109089 -0.00216382 0)
(0.109961 -0.00226363 0)
(0.110855 -0.00236221 0)
(0.111767 -0.0024596 0)
(0.112698 -0.00255583 0)
(0.113644 -0.00265092 0)
(0.114605 -0.00274486 0)
(0.11558 -0.00283763 0)
(0.116566 -0.0029292 0)
(0.117563 -0.00301952 0)
(0.118569 -0.00310852 0)
(0.119584 -0.00319615 0)
(0.120605 -0.00328231 0)
(0.121632 -0.0033669 0)
(0.122663 -0.00344983 0)
(0.123698 -0.00353096 0)
(0.124735 -0.00361016 0)
(0.125774 -0.00368729 0)
(0.126812 -0.00376218 0)
(0.12785 -0.00383466 0)
(0.128885 -0.00390451 0)
(0.129918 -0.00397154 0)
(0.130946 -0.0040355 0)
(0.131969 -0.00409612 0)
(0.132986 -0.00415314 0)
(0.133996 -0.00420622 0)
(0.134997 -0.00425503 0)
(0.135989 -0.00429918 0)
(0.136971 -0.00433824 0)
(0.137941 -0.00437173 0)
(0.138898 -0.00439914 0)
(0.139842 -0.00441987 0)
(0.140771 -0.00443327 0)
(0.141683 -0.00443859 0)
(0.142579 -0.004435 0)
(0.143456 -0.00442155 0)
(0.144313 -0.00439717 0)
(0.14515 -0.00436065 0)
(0.145964 -0.00431061 0)
(0.146754 -0.00424545 0)
(0.14752 -0.00416335 0)
(0.148259 -0.00406221 0)
(0.148971 -0.00393962 0)
(0.149654 -0.00379278 0)
(0.150307 -0.00361844 0)
(0.150928 -0.00341284 0)
(0.151517 -0.00317159 0)
(0.152074 -0.00288959 0)
(0.152597 -0.00256093 0)
(0.153087 -0.00217876 0)
(0.153546 -0.00173516 0)
(0.153976 -0.00122108 0)
(0.154381 -0.00062627 0)
(0.154768 6.07709e-05 0)
(0.155146 0.00085174 0)
(0.155527 0.00175884 0)
(0.15593 0.00279415 0)
(0.156379 0.00396803 0)
(0.156904 0.00528696 0)
(0.157541 0.00675059 0)
(0.158334 0.00834765 0)
(0.159327 0.0100509 0)
(0.160564 0.0118118 0)
(0.162071 0.0135565 0)
(0.163844 0.0151888 0)
(0.100014 -0.000208929 0)
(0.100151 -0.000415002 0)
(0.100373 -0.000601795 0)
(0.100668 -0.000775596 0)
(0.10103 -0.000939272 0)
(0.101454 -0.00109479 0)
(0.101933 -0.00124364 0)
(0.102463 -0.001387 0)
(0.10304 -0.00152574 0)
(0.103659 -0.00166057 0)
(0.104317 -0.00179205 0)
(0.105011 -0.00192063 0)
(0.105739 -0.00204666 0)
(0.106497 -0.00217044 0)
(0.107284 -0.00229221 0)
(0.108098 -0.00241216 0)
(0.108935 -0.00253042 0)
(0.109795 -0.00264713 0)
(0.110676 -0.00276235 0)
(0.111575 -0.00287615 0)
(0.112492 -0.00298857 0)
(0.113425 -0.0030996 0)
(0.114372 -0.00320926 0)
(0.115332 -0.00331752 0)
(0.116303 -0.00342432 0)
(0.117285 -0.00352963 0)
(0.118276 -0.00363337 0)
(0.119275 -0.00373545 0)
(0.12028 -0.00383578 0)
(0.12129 -0.00393425 0)
(0.122305 -0.00403072 0)
(0.123323 -0.00412506 0)
(0.124343 -0.0042171 0)
(0.125364 -0.00430669 0)
(0.126384 -0.00439361 0)
(0.127404 -0.00447768 0)
(0.128421 -0.00455866 0)
(0.129435 -0.00463629 0)
(0.130444 -0.00471032 0)
(0.131448 -0.00478043 0)
(0.132446 -0.0048463 0)
(0.133436 -0.00490758 0)
(0.134418 -0.00496386 0)
(0.135391 -0.00501471 0)
(0.136353 -0.00505965 0)
(0.137303 -0.00509814 0)
(0.138241 -0.0051296 0)
(0.139166 -0.00515336 0)
(0.140076 -0.00516869 0)
(0.14097 -0.00517478 0)
(0.141848 -0.00517071 0)
(0.142707 -0.00515545 0)
(0.143549 -0.00512784 0)
(0.14437 -0.00508658 0)
(0.14517 -0.0050302 0)
(0.145948 -0.00495703 0)
(0.146704 -0.00486516 0)
(0.147436 -0.00475245 0)
(0.148143 -0.00461645 0)
(0.148824 -0.00445436 0)
(0.14948 -0.00426302 0)
(0.150109 -0.00403881 0)
(0.150712 -0.00377762 0)
(0.151289 -0.00347483 0)
(0.151842 -0.0031252 0)
(0.152371 -0.0027229 0)
(0.15288 -0.00226147 0)
(0.153373 -0.00173387 0)
(0.153855 -0.00113261 0)
(0.154336 -0.000449822 0)
(0.154824 0.000322497 0)
(0.155333 0.00118987 0)
(0.155879 0.00215734 0)
(0.156481 0.00322724 0)
(0.157163 0.00439758 0)
(0.157951 0.00566029 0)
(0.158871 0.00699922 0)
(0.15995 0.00838818 0)
(0.161207 0.00978974 0)
(0.162651 0.0111558 0)
(0.164271 0.0124318 0)
(0.100011 -0.000237127 0)
(0.100145 -0.000474166 0)
(0.10036 -0.000689424 0)
(0.100647 -0.000890045 0)
(0.101001 -0.00107918 0)
(0.101415 -0.00125895 0)
(0.101885 -0.00143102 0)
(0.102404 -0.00159671 0)
(0.10297 -0.00175705 0)
(0.103577 -0.00191282 0)
(0.104224 -0.00206469 0)
(0.104906 -0.00221315 0)
(0.105621 -0.00235864 0)
(0.106367 -0.00250148 0)
(0.107141 -0.00264196 0)
(0.10794 -0.00278028 0)
(0.108764 -0.00291663 0)
(0.10961 -0.00305112 0)
(0.110476 -0.00318387 0)
(0.11136 -0.00331493 0)
(0.112262 -0.00344434 0)
(0.113179 -0.00357212 0)
(0.11411 -0.00369827 0)
(0.115053 -0.00382275 0)
(0.116008 -0.00394551 0)
(0.116973 -0.0040665 0)
(0.117946 -0.00418563 0)
(0.118927 -0.0043028 0)
(0.119914 -0.00441791 0)
(0.120906 -0.00453081 0)
(0.121902 -0.00464137 0)
(0.122901 -0.00474942 0)
(0.123901 -0.00485479 0)
(0.124902 -0.00495727 0)
(0.125903 -0.00505664 0)
(0.126902 -0.00515268 0)
(0.127898 -0.00524513 0)
(0.128892 -0.00533369 0)
(0.12988 -0.00541806 0)
(0.130863 -0.00549792 0)
(0.131839 -0.00557287 0)
(0.132808 -0.00564254 0)
(0.133769 -0.00570647 0)
(0.13472 -0.00576417 0)
(0.13566 -0.00581513 0)
(0.13659 -0.00585875 0)
(0.137507 -0.00589438 0)
(0.13841 -0.00592132 0)
(0.1393 -0.00593876 0)
(0.140175 -0.00594584 0)
(0.141033 -0.00594158 0)
(0.141875 -0.00592489 0)
(0.142699 -0.00589456 0)
(0.143504 -0.00584924 0)
(0.14429 -0.00578742 0)
(0.145056 -0.00570742 0)
(0.145802 -0.00560733 0)
(0.146526 -0.00548505 0)
(0.147229 -0.0053382 0)
(0.14791 -0.00516415 0)
(0.148569 -0.00495996 0)
(0.149207 -0.00472236 0)
(0.149825 -0.00444774 0)
(0.150423 -0.00413216 0)
(0.151005 -0.00377135 0)
(0.151572 -0.00336073 0)
(0.152128 -0.00289551 0)
(0.152679 -0.00237082 0)
(0.15323 -0.00178187 0)
(0.15379 -0.00112419 0)
(0.154368 -0.000393883 0)
(0.154977 0.000412277 0)
(0.155629 0.00129286 0)
(0.156339 0.00224535 0)
(0.157123 0.00326367 0)
(0.157997 0.00433719 0)
(0.158978 0.00544997 0)
(0.160078 0.00658043 0)
(0.161305 0.00770167 0)
(0.162659 0.00878297 0)
(0.164129 0.00979317 0)
(0.100007 -0.000266191 0)
(0.100138 -0.000535404 0)
(0.100348 -0.000780487 0)
(0.100627 -0.00100928 0)
(0.100971 -0.00122523 0)
(0.101375 -0.00143058 0)
(0.101833 -0.00162717 0)
(0.102341 -0.00181647 0)
(0.102895 -0.00199962 0)
(0.10349 -0.00217752 0)
(0.104123 -0.00235091 0)
(0.104792 -0.00252037 0)
(0.105493 -0.00268637 0)
(0.106225 -0.00284931 0)
(0.106984 -0.00300949 0)
(0.107768 -0.00316716 0)
(0.108576 -0.00332252 0)
(0.109406 -0.00347572 0)
(0.110256 -0.00362686 0)
(0.111124 -0.00377603 0)
(0.112008 -0.00392326 0)
(0.112907 -0.00406858 0)
(0.11382 -0.00421197 0)
(0.114746 -0.0043534 0)
(0.115682 -0.00449282 0)
(0.116627 -0.00463016 0)
(0.117581 -0.00476532 0)
(0.118542 -0.00489819 0)
(0.119509 -0.00502865 0)
(0.12048 -0.00515654 0)
(0.121455 -0.00528171 0)
(0.122433 -0.00540396 0)
(0.123411 -0.00552309 0)
(0.124391 -0.00563888 0)
(0.125369 -0.0057511 0)
(0.126346 -0.00585946 0)
(0.12732 -0.00596369 0)
(0.12829 -0.00606347 0)
(0.129255 -0.00615846 0)
(0.130215 -0.00624828 0)
(0.131168 -0.00633253 0)
(0.132114 -0.00641078 0)
(0.133051 -0.00648253 0)
(0.133979 -0.00654726 0)
(0.134896 -0.0066044 0)
(0.135803 -0.00665332 0)
(0.136697 -0.00669333 0)
(0.137578 -0.00672367 0)
(0.138446 -0.00674351 0)
(0.1393 -0.00675194 0)
(0.140138 -0.00674795 0)
(0.140961 -0.00673043 0)
(0.141767 -0.00669815 0)
(0.142556 -0.00664976 0)
(0.143328 -0.00658378 0)
(0.144081 -0.00649857 0)
(0.144817 -0.0063923 0)
(0.145534 -0.00626301 0)
(0.146232 -0.00610851 0)
(0.146913 -0.00592644 0)
(0.147576 -0.00571422 0)
(0.148223 -0.00546908 0)
(0.148855 -0.00518807 0)
(0.149474 -0.00486808 0)
(0.150082 -0.00450591 0)
(0.150684 -0.00409834 0)
(0.151282 -0.00364221 0)
(0.151881 -0.00313465 0)
(0.152489 -0.00257319 0)
(0.153112 -0.00195611 0)
(0.153759 -0.00128258 0)
(0.154439 -0.0005529 0)
(0.155163 0.000231717 0)
(0.15594 0.0010652 0)
(0.156781 0.00193915 0)
(0.157696 0.00284327 0)
(0.158692 0.00376412 0)
(0.159775 0.00468536 0)
(0.160947 0.00558838 0)
(0.162204 0.00645368 0)
(0.163538 0.00726318 0)
(0.100003 -0.000296154 0)
(0.100132 -0.000598709 0)
(0.100335 -0.000874948 0)
(0.100605 -0.00113323 0)
(0.10094 -0.00137734 0)
(0.101333 -0.00160962 0)
(0.10178 -0.00183203 0)
(0.102276 -0.00204619 0)
(0.102816 -0.00225338 0)
(0.103397 -0.0024546 0)
(0.104016 -0.00265066 0)
(0.10467 -0.00284222 0)
(0.105356 -0.00302982 0)
(0.106071 -0.00321388 0)
(0.106814 -0.00339477 0)
(0.107582 -0.00357276 0)
(0.108373 -0.00374807 0)
(0.109185 -0.00392087 0)
(0.110016 -0.00409128 0)
(0.110865 -0.00425939 0)
(0.111731 -0.00442525 0)
(0.112611 -0.00458888 0)
(0.113504 -0.00475026 0)
(0.114409 -0.00490936 0)
(0.115324 -0.00506612 0)
(0.116248 -0.00522046 0)
(0.117181 -0.00537227 0)
(0.11812 -0.00552143 0)
(0.119064 -0.00566779 0)
(0.120013 -0.00581119 0)
(0.120965 -0.00595144 0)
(0.121919 -0.00608834 0)
(0.122874 -0.00622166 0)
(0.12383 -0.00635115 0)
(0.124784 -0.00647655 0)
(0.125736 -0.00659757 0)
(0.126685 -0.00671388 0)
(0.127631 -0.00682514 0)
(0.128571 -0.00693098 0)
(0.129506 -0.007031 0)
(0.130434 -0.00712475 0)
(0.131354 -0.00721177 0)
(0.132266 -0.00729153 0)
(0.133169 -0.00736348 0)
(0.134062 -0.00742702 0)
(0.134944 -0.00748147 0)
(0.135814 -0.00752614 0)
(0.136672 -0.00756022 0)
(0.137518 -0.00758289 0)
(0.138349 -0.00759319 0)
(0.139167 -0.00759014 0)
(0.139969 -0.00757263 0)
(0.140757 -0.00753946 0)
(0.141529 -0.00748933 0)
(0.142286 -0.00742083 0)
(0.143027 -0.00733244 0)
(0.143752 -0.0072225 0)
(0.144461 -0.00708924 0)
(0.145156 -0.00693077 0)
(0.145836 -0.00674508 0)
(0.146503 -0.00653007 0)
(0.147157 -0.00628355 0)
(0.147802 -0.00600329 0)
(0.148438 -0.00568708 0)
(0.14907 -0.00533277 0)
(0.149699 -0.0049384 0)
(0.150331 -0.00450228 0)
(0.15097 -0.00402316 0)
(0.15162 -0.00350039 0)
(0.152289 -0.00293413 0)
(0.152983 -0.00232553 0)
(0.153708 -0.00167691 0)
(0.154472 -0.000991768 0)
(0.155283 -0.000274442 0)
(0.156147 0.00046832 0)
(0.157069 0.00122599 0)
(0.158051 0.00198714 0)
(0.159096 0.00274002 0)
(0.160202 0.00347215 0)
(0.161365 0.0041713 0)
(0.162577 0.00482694 0)
(0.0999991 -0.000327037 0)
(0.100126 -0.000664063 0)
(0.100323 -0.000972758 0)
(0.100584 -0.00126185 0)
(0.100908 -0.00153542 0)
(0.10129 -0.00179592 0)
(0.101725 -0.00204544 0)
(0.102207 -0.00228573 0)
(0.102733 -0.00251818 0)
(0.103299 -0.00274389 0)
(0.103903 -0.00296377 0)
(0.10454 -0.00317854 0)
(0.105209 -0.0033888 0)
(0.105908 -0.00359502 0)
(0.106632 -0.00379761 0)
(0.107382 -0.00399688 0)
(0.108154 -0.00419306 0)
(0.108946 -0.00438635 0)
(0.109758 -0.00457689 0)
(0.110586 -0.00476477 0)
(0.111431 -0.00495005 0)
(0.112289 -0.00513274 0)
(0.113161 -0.00531283 0)
(0.114043 -0.00549029 0)
(0.114936 -0.00566505 0)
(0.115837 -0.00583701 0)
(0.116746 -0.00600605 0)
(0.117661 -0.00617205 0)
(0.118581 -0.00633483 0)
(0.119505 -0.00649422 0)
(0.120432 -0.00665001 0)
(0.121361 -0.00680197 0)
(0.122291 -0.00694986 0)
(0.12322 -0.00709341 0)
(0.124148 -0.00723232 0)
(0.125074 -0.00736628 0)
(0.125996 -0.00749494 0)
(0.126915 -0.00761793 0)
(0.127828 -0.00773486 0)
(0.128736 -0.00784529 0)
(0.129637 -0.00794875 0)
(0.130531 -0.00804475 0)
(0.131416 -0.00813274 0)
(0.132293 -0.00821215 0)
(0.133159 -0.00828235 0)
(0.134016 -0.00834266 0)
(0.134861 -0.00839236 0)
(0.135694 -0.00843066 0)
(0.136516 -0.00845671 0)
(0.137324 -0.00846961 0)
(0.13812 -0.00846838 0)
(0.138902 -0.00845197 0)
(0.139671 -0.00841925 0)
(0.140426 -0.00836902 0)
(0.141167 -0.00829999 0)
(0.141895 -0.00821082 0)
(0.142609 -0.00810007 0)
(0.14331 -0.00796624 0)
(0.144 -0.0078078 0)
(0.144678 -0.00762315 0)
(0.145347 -0.00741069 0)
(0.146007 -0.00716887 0)
(0.146661 -0.00689617 0)
(0.147311 -0.00659122 0)
(0.14796 -0.00625284 0)
(0.148611 -0.00588011 0)
(0.149267 -0.00547251 0)
(0.149933 -0.00503002 0)
(0.150612 -0.0045532 0)
(0.15131 -0.00404338 0)
(0.152031 -0.00350275 0)
(0.152779 -0.00293443 0)
(0.153561 -0.00234257 0)
(0.154379 -0.00173231 0)
(0.155239 -0.00110956 0)
(0.156142 -0.000480293 0)
(0.157091 0.00014803 0)
(0.158085 0.000766391 0)
(0.15912 0.00136496 0)
(0.160193 0.00193543 0)
(0.161298 0.0024717 0)
(0.0999947 -0.000358848 0)
(0.100119 -0.000731436 0)
(0.10031 -0.00107384 0)
(0.100562 -0.00139501 0)
(0.100876 -0.00169932 0)
(0.101246 -0.00198933 0)
(0.101667 -0.00226722 0)
(0.102135 -0.00253487 0)
(0.102646 -0.00279377 0)
(0.103196 -0.00304514 0)
(0.103783 -0.00328996 0)
(0.104403 -0.00352903 0)
(0.105054 -0.003763 0)
(0.105733 -0.0039924 0)
(0.106439 -0.00421767 0)
(0.107168 -0.00443915 0)
(0.107919 -0.00465711 0)
(0.108691 -0.00487177 0)
(0.10948 -0.00508326 0)
(0.110287 -0.00529171 0)
(0.111109 -0.00549716 0)
(0.111944 -0.00569964 0)
(0.112792 -0.00589914 0)
(0.11365 -0.00609561 0)
(0.114518 -0.00628898 0)
(0.115394 -0.00647914 0)
(0.116277 -0.00666597 0)
(0.117166 -0.00684931 0)
(0.11806 -0.00702899 0)
(0.118958 -0.00720481 0)
(0.119857 -0.00737655 0)
(0.120759 -0.00754395 0)
(0.121661 -0.00770676 0)
(0.122562 -0.00786468 0)
(0.123462 -0.0080174 0)
(0.124359 -0.00816457 0)
(0.125253 -0.00830582 0)
(0.126143 -0.00844078 0)
(0.127028 -0.00856901 0)
(0.127907 -0.00869006 0)
(0.12878 -0.00880345 0)
(0.129645 -0.00890867 0)
(0.130502 -0.00900515 0)
(0.131351 -0.00909231 0)
(0.13219 -0.00916951 0)
(0.133019 -0.00923609 0)
(0.133838 -0.00929132 0)
(0.134646 -0.00933444 0)
(0.135442 -0.00936463 0)
(0.136227 -0.00938103 0)
(0.137 -0.00938272 0)
(0.137761 -0.00936874 0)
(0.13851 -0.00933807 0)
(0.139247 -0.00928964 0)
(0.139972 -0.00922236 0)
(0.140685 -0.00913507 0)
(0.141388 -0.00902662 0)
(0.14208 -0.00889582 0)
(0.142763 -0.00874149 0)
(0.143438 -0.0085625 0)
(0.144106 -0.00835777 0)
(0.144769 -0.0081263 0)
(0.145428 -0.00786725 0)
(0.146087 -0.00757997 0)
(0.146746 -0.00726406 0)
(0.14741 -0.00691943 0)
(0.148081 -0.00654639 0)
(0.148762 -0.00614571 0)
(0.149457 -0.00571869 0)
(0.150168 -0.00526724 0)
(0.1509 -0.00479391 0)
(0.151655 -0.00430195 0)
(0.152436 -0.00379525 0)
(0.153245 -0.00327839 0)
(0.154083 -0.00275649 0)
(0.154953 -0.00223508 0)
(0.155854 -0.00171983 0)
(0.156786 -0.00121622 0)
(0.157747 -0.000728708 0)
(0.158733 -0.000262109 0)
(0.15974 0.000179418 0)
(0.0999899 -0.000391578 0)
(0.100112 -0.000800774 0)
(0.100297 -0.00117809 0)
(0.10054 -0.00153256 0)
(0.100843 -0.00186884 0)
(0.1012 -0.0021896 0)
(0.101607 -0.00249708 0)
(0.10206 -0.00279328 0)
(0.102555 -0.00307981 0)
(0.103088 -0.00335797 0)
(0.103657 -0.00362883 0)
(0.104258 -0.00389325 0)
(0.10489 -0.00415195 0)
(0.105549 -0.00440551 0)
(0.106233 -0.0046544 0)
(0.106941 -0.004899 0)
(0.10767 -0.00513961 0)
(0.108418 -0.00537646 0)
(0.109185 -0.0056097 0)
(0.109967 -0.00583947 0)
(0.110764 -0.00606582 0)
(0.111574 -0.00628877 0)
(0.112396 -0.00650832 0)
(0.113228 -0.00672441 0)
(0.11407 -0.00693696 0)
(0.114919 -0.00714586 0)
(0.115774 -0.00735098 0)
(0.116636 -0.00755213 0)
(0.117501 -0.00774914 0)
(0.11837 -0.00794179 0)
(0.11924 -0.00812984 0)
(0.120112 -0.00831302 0)
(0.120985 -0.00849106 0)
(0.121856 -0.00866363 0)