/*--------------------------------*- C++ -*----------------------------------*\
| =========                 |                                                 |
| \\      /  F ield         | OpenFOAM: The Open Source CFD Toolbox           |
|  \\    /   O peration     | Version:  2106                                  |
|   \\  /    A nd           | Website:  www.openfoam.com                      |
|    \\/     M anipulation  |                                                 |
\*---------------------------------------------------------------------------*/
FoamFile
{
    version     2.0;
    format      ascii;
    arch        "LSB;label=32;scalar=64";
    class       surfaceScalarField;
    location    "2.4";
    object      phi;
}
// * * * * * * * * * * * * * * * * * * * * * * * * * * * * * * * * * * * * * //

dimensions      [1 0 -1 0 0 0 0];

oriented        oriented;

internalField   nonuniform List<scalar> 
23692
(
9.3138e-05
-5.84881e-08
9.32438e-05
-1.05705e-07
9.33908e-05
-1.46768e-07
9.35729e-05
-1.81819e-07
9.37854e-05
-2.12202e-07
9.40245e-05
-2.38754e-07
9.4287e-05
-2.62043e-07
9.45701e-05
-2.82509e-07
9.48711e-05
-3.00483e-07
9.5188e-05
-3.16218e-07
9.55186e-05
-3.29906e-07
9.58611e-05
-3.41709e-07
9.62138e-05
-3.51769e-07
9.65749e-05
-3.60228e-07
9.69431e-05
-3.67235e-07
9.73171e-05
-3.72957e-07
9.76957e-05
-3.77579e-07
9.80781e-05
-3.81306e-07
9.84637e-05
-3.84346e-07
9.88518e-05
-3.86911e-07
9.92422e-05
-3.89198e-07
9.96349e-05
-3.91392e-07
0.00010003
-3.93638e-07
0.000100427
-3.96058e-07
0.000100827
-3.98732e-07
0.000101231
-4.01705e-07
0.000101637
-4.04988e-07
0.000102047
-4.0856e-07
0.000102461
-4.12378e-07
0.000102879
-4.16379e-07
0.000103301
-4.20487e-07
0.000103727
-4.24615e-07
0.000104158
-4.28676e-07
0.000104592
-4.32575e-07
0.00010503
-4.36228e-07
0.000105471
-4.39548e-07
0.000105915
-4.42454e-07
0.000106361
-4.44872e-07
0.00010681
-4.46732e-07
0.000107259
-4.47965e-07
0.00010771
-4.4851e-07
0.00010816
-4.48305e-07
0.000108608
-4.4729e-07
0.000109056
-4.45407e-07
0.0001095
-4.42592e-07
0.00010994
-4.38785e-07
0.000110376
-4.33918e-07
0.000110805
-4.27917e-07
0.000111228
-4.20699e-07
0.000111641
-4.12177e-07
0.000112045
-4.02247e-07
0.000112438
-3.90796e-07
0.000112817
-3.77688e-07
0.000113181
-3.62771e-07
0.000113529
-3.45864e-07
0.000113857
-3.26755e-07
0.000114164
-3.05196e-07
0.000114446
-2.80887e-07
0.000114701
-2.53472e-07
0.000114925
-2.22519e-07
0.000115114
-1.87503e-07
0.000115263
-1.47777e-07
0.000115367
-1.02542e-07
0.000115419
-5.07962e-08
0.000115412
8.72721e-09
0.000115336
7.77028e-08
0.000115179
1.58323e-07
0.000114927
2.53496e-07
0.000114561
3.67156e-07
0.000114057
5.04739e-07
0.000113385
6.73916e-07
0.0001125
8.85775e-07
0.000111345
1.15673e-06
0.000109834
1.51172e-06
0.000107846
1.98959e-06
0.000105195
2.6523e-06
0.000101596
3.60039e-06
9.65962e-05
5.00054e-06
8.94487e-05
7.14867e-06
7.88227e-05
1.06272e-05
1.70369e-05
6.17869e-05
9.96604e-05
-1.19678e-07
9.97731e-05
-2.18279e-07
9.99299e-05
-3.03413e-07
0.000100124
-3.75946e-07
0.000100351
-4.38835e-07
0.000100607
-4.93793e-07
0.000100887
-5.41983e-07
0.00010119
-5.84328e-07
0.000101511
-6.21511e-07
0.00010185
-6.54052e-07
0.000102203
-6.8236e-07
0.000102569
-7.06765e-07
0.000102946
-7.27557e-07
0.000103331
-7.45033e-07
0.000103725
-7.595e-07
0.000104124
-7.71307e-07
0.000104528
-7.80837e-07
0.000104937
-7.88503e-07
0.000105349
-7.94749e-07
0.000105763
-8.00005e-07
0.00010618
-8.04688e-07
0.000106599
-8.09168e-07
0.000107021
-8.13758e-07
0.000107445
-8.18703e-07
0.000107872
-8.24172e-07
0.000108302
-8.30257e-07
0.000108735
-8.3698e-07
0.000109173
-8.44304e-07
0.000109614
-8.52136e-07
0.00011006
-8.60346e-07
0.00011051
-8.68775e-07
0.000110964
-8.77246e-07
0.000111423
-8.85573e-07
0.000111885
-8.93572e-07
0.000112352
-9.01058e-07
0.000112822
-9.07855e-07
0.000113295
-9.13798e-07
0.000113771
-9.1873e-07
0.000114248
-9.22505e-07
0.000114727
-9.24987e-07
0.000115206
-9.26043e-07
0.000115685
-9.25549e-07
0.000116163
-9.23382e-07
0.000116639
-9.19418e-07
0.000117112
-9.13534e-07
0.00011758
-9.05597e-07
0.000118044
-8.95469e-07
0.0001185
-8.83e-07
0.000118949
-8.68023e-07
0.000119389
-8.50355e-07
0.000119819
-8.29787e-07
0.000120236
-8.06083e-07
0.000120639
-7.78971e-07
0.000121026
-7.48136e-07
0.000121395
-7.13212e-07
0.000121743
-6.73769e-07
0.000122069
-6.29299e-07
0.000122369
-5.79199e-07
0.00012264
-5.22747e-07
0.000122878
-4.59073e-07
0.000123079
-3.87117e-07
0.000123238
-3.05584e-07
0.00012335
-2.12875e-07
0.000123408
-1.06994e-07
0.000123404
1.45743e-08
0.000123328
1.55101e-07
0.000123169
3.18854e-07
0.000122912
5.11446e-07
0.00012254
7.40378e-07
0.00012203
1.01586e-06
0.000121354
1.35206e-06
0.000120472
1.76895e-06
0.000119335
2.29529e-06
0.000117875
2.97315e-06
0.000116001
3.86494e-06
0.00011359
5.0639e-06
0.000110484
6.70786e-06
0.000106492
8.9944e-06
0.000101446
1.21952e-05
9.54803e-05
1.65944e-05
2.18474e-05
9.0671e-05
0.000106639
-1.83308e-07
0.000106759
-3.3771e-07
0.000106925
-4.69933e-07
0.000107132
-5.82654e-07
0.000107374
-6.80343e-07
0.000107647
-7.65675e-07
0.000107946
-8.40485e-07
0.000108268
-9.06199e-07
0.000108611
-9.63887e-07
0.000108972
-1.01436e-06
0.000109349
-1.05826e-06
0.000109739
-1.09608e-06
0.000110141
-1.1283e-06
0.000110552
-1.15535e-06
0.000110972
-1.17773e-06
0.000111397
-1.19597e-06
0.000111828
-1.21067e-06
0.000112264
-1.22247e-06
0.000112702
-1.23205e-06
0.000113144
-1.24008e-06
0.000113588
-1.24722e-06
0.000114034
-1.25403e-06
0.000114483
-1.261e-06
0.000114934
-1.26851e-06
0.000115389
-1.27684e-06
0.000115846
-1.28611e-06
0.000116307
-1.29636e-06
0.000116772
-1.30755e-06
0.000117241
-1.31952e-06
0.000117715
-1.33207e-06
0.000118193
-1.34496e-06
0.000118675
-1.35791e-06
0.000119162
-1.37065e-06
0.000119653
-1.38286e-06
0.000120148
-1.39429e-06
0.000120647
-1.40464e-06
0.000121149
-1.41367e-06
0.000121653
-1.42113e-06
0.000122159
-1.42679e-06
0.000122667
-1.43045e-06
0.000123174
-1.43189e-06
0.000123682
-1.43094e-06
0.000124188
-1.42739e-06
0.000124691
-1.42105e-06
0.000125191
-1.41174e-06
0.000125687
-1.39926e-06
0.000126177
-1.38338e-06
0.000126659
-1.36389e-06
0.000127134
-1.34052e-06
0.000127598
-1.313e-06
0.000128051
-1.281e-06
0.000128491
-1.24417e-06
0.000128916
-1.20209e-06
0.000129324
-1.1543e-06
0.000129713
-1.10022e-06
0.00013008
-1.03922e-06
0.000130423
-9.70523e-07
0.000130739
-8.93235e-07
0.000131024
-8.06271e-07
0.000131275
-7.08333e-07
0.000131487
-5.97853e-07
0.000131656
-4.72915e-07
0.000131776
-3.3117e-07
0.00013184
-1.69704e-07
0.000131841
1.51211e-08
0.00013177
2.27961e-07
0.000131616
4.74816e-07
0.000131365
7.63477e-07
0.000131003
1.10417e-06
0.00013051
1.51052e-06
0.000129863
2.00086e-06
0.000129033
2.60021e-06
0.000127986
3.34304e-06
0.000126684
4.27708e-06
0.000125082
5.4683e-06
0.000123141
7.00637e-06
0.000120843
9.00757e-06
0.000118232
1.16068e-05
0.000115511
1.49173e-05
0.000113232
1.88741e-05
2.27428e-05
0.000112338
0.000114106
-2.49313e-07
0.000114233
-4.63821e-07
0.000114409
-6.46357e-07
0.000114629
-8.02149e-07
0.000114886
-9.37086e-07
0.000115176
-1.0549e-06
0.000115494
-1.15815e-06
0.000115837
-1.24881e-06
0.000116203
-1.32836e-06
0.000116587
-1.39795e-06
0.000116988
-1.45843e-06
0.000117404
-1.51052e-06
0.000117831
-1.55486e-06
0.000118269
-1.59206e-06
0.000118715
-1.6228e-06
0.000119168
-1.64781e-06
0.000119627
-1.66791e-06
0.00012009
-1.684e-06
0.000120556
-1.697e-06
0.000121025
-1.70786e-06
0.000121497
-1.71745e-06
0.000121971
-1.72657e-06
0.000122448
-1.7359e-06
0.000122927
-1.74596e-06
0.000123409
-1.75711e-06
0.000123894
-1.76957e-06
0.000124383
-1.78337e-06
0.000124876
-1.79843e-06
0.000125373
-1.81458e-06
0.000125874
-1.83152e-06
0.00012638
-1.84892e-06
0.00012689
-1.86641e-06
0.000127405
-1.88359e-06
0.000127924
-1.90006e-06
0.000128448
-1.91543e-06
0.000128974
-1.92932e-06
0.000129504
-1.94138e-06
0.000130036
-1.95128e-06
0.00013057
-1.95871e-06
0.000131105
-1.96337e-06
0.00013164
-1.96499e-06
0.000132175
-1.9633e-06
0.000132707
-1.95803e-06
0.000133237
-1.94894e-06
0.000133763
-1.93576e-06
0.000134284
-1.91821e-06
0.000134799
-1.89601e-06
0.000135306
-1.86884e-06
0.000135804
-1.83637e-06
0.000136291
-1.7982e-06
0.000136766
-1.75392e-06
0.000137226
-1.70304e-06
0.000137671
-1.64502e-06
0.000138098
-1.5792e-06
0.000138505
-1.50487e-06
0.000138889
-1.42115e-06
0.000139247
-1.32704e-06
0.000139577
-1.22136e-06
0.000139875
-1.10268e-06
0.000140138
-9.69335e-07
0.000140361
-8.19282e-07
0.00014054
-6.50071e-07
0.000140669
-4.58711e-07
0.000140743
-2.41535e-07
0.000140754
5.98067e-09
0.000140694
2.89527e-07
0.000140554
6.16259e-07
0.000140324
9.95346e-07
0.000139991
1.43852e-06
0.000139542
1.96091e-06
0.000138963
2.58217e-06
0.000138236
3.3279e-06
0.00013735
4.23146e-06
0.000136292
5.33587e-06
0.000135067
6.69549e-06
0.000133699
8.37572e-06
0.000132261
1.04471e-05
0.000130903
1.29657e-05
0.000129899
1.59235e-05
0.000129639
1.91352e-05
2.20244e-05
0.000130359
0.000122097
-3.17704e-07
0.000122229
-5.96484e-07
0.000122416
-8.32685e-07
0.000122649
-1.03457e-06
0.000122921
-1.20936e-06
0.000123229
-1.36188e-06
0.000123567
-1.49549e-06
0.000123932
-1.61276e-06
0.00012432
-1.71563e-06
0.000124728
-1.80554e-06
0.000125154
-1.88365e-06
0.000125596
-1.95088e-06
0.00012605
-2.00805e-06
0.000126515
-2.05597e-06
0.000126989
-2.0955e-06
0.00012747
-2.1276e-06
0.000127957
-2.15332e-06
0.000128448
-2.17382e-06
0.000128943
-2.19029e-06
0.000129441
-2.20396e-06
0.000129941
-2.21595e-06
0.000130443
-2.22729e-06
0.000130948
-2.23888e-06
0.000131455
-2.25137e-06
0.000131965
-2.26526e-06
0.000132478
-2.28079e-06
0.000132995
-2.29805e-06
0.000133515
-2.31692e-06
0.00013404
-2.33718e-06
0.000134569
-2.35845e-06
0.000135102
-2.38031e-06
0.00013564
-2.40227e-06
0.000136183
-2.42383e-06
0.000136729
-2.44447e-06
0.00013728
-2.46369e-06
0.000137833
-2.48099e-06
0.00013839
-2.49594e-06
0.000138949
-2.50809e-06
0.00013951
-2.51705e-06
0.000140071
-2.52243e-06
0.000140632
-2.52389e-06
0.000141192
-2.52108e-06
0.00014175
-2.51367e-06
0.000142304
-2.50133e-06
0.000142854
-2.48372e-06
0.000143399
-2.4605e-06
0.000143936
-2.43131e-06
0.000144465
-2.39574e-06
0.000144984
-2.35337e-06
0.000145492
-2.30373e-06
0.000145987
-2.24628e-06
0.000146466
-2.18042e-06
0.000146929
-2.10546e-06
0.000147372
-2.02064e-06
0.000147794
-1.92503e-06
0.000148193
-1.81759e-06
0.000148565
-1.6971e-06
0.000148907
-1.56212e-06
0.000149218
-1.41096e-06
0.000149492
-1.24161e-06
0.000149726
-1.05169e-06
0.000149916
-8.38307e-07
0.000150058
-5.98024e-07
0.000150144
-3.26652e-07
0.000150171
-1.91402e-08
0.000150132
3.30777e-07
0.000150019
7.30673e-07
0.000149826
1.19013e-06
0.000149546
1.72097e-06
0.00014917
2.33789e-06
0.000148695
3.05907e-06
0.000148118
3.90693e-06
0.000147442
4.90865e-06
0.000146683
6.09637e-06
0.000145874
7.50617e-06
0.000145077
9.17453e-06
0.000144396
1.11295e-05
0.000143992
1.3372e-05
0.000144076
1.58408e-05
0.000144858
1.83546e-05
2.05409e-05
0.000146343
0.000130646
-3.88524e-07
0.000130786
-7.35616e-07
0.000130982
-1.02892e-06
0.000131228
-1.28001e-06
0.000131516
-1.49738e-06
0.000131842
-1.68697e-06
0.0001322
-1.85297e-06
0.000132587
-1.9986e-06
0.000132998
-2.12626e-06
0.000133431
-2.23779e-06
0.000133883
-2.3346e-06
0.000134351
-2.41786e-06
0.000134833
-2.48859e-06
0.000135326
-2.5478e-06
0.000135829
-2.59656e-06
0.000136338
-2.63605e-06
0.000136854
-2.66757e-06
0.000137374
-2.69256e-06
0.000137898
-2.71251e-06
0.000138425
-2.72891e-06
0.000138954
-2.74317e-06
0.000139485
-2.75658e-06
0.000140018
-2.77023e-06
0.000140554
-2.78496e-06
0.000141092
-2.80136e-06
0.000141633
-2.81977e-06
0.000142177
-2.84028e-06
0.000142725
-2.86277e-06
0.000143277
-2.88695e-06
0.000143833
-2.91237e-06
0.000144394
-2.93851e-06
0.000144958
-2.96477e-06
0.000145527
-2.99052e-06
0.0001461
-3.01513e-06
0.000146677
-3.03797e-06
0.000147257
-3.05844e-06
0.000147839
-3.07599e-06
0.000148423
-3.09008e-06
0.000149009
-3.10021e-06
0.000149595
-3.10592e-06
0.00015018
-3.10678e-06
0.000150763
-3.10236e-06
0.000151344
-3.09226e-06
0.000151921
-3.07608e-06
0.000152493
-3.0534e-06
0.000153059
-3.02382e-06
0.000153617
-2.98688e-06
0.000154166
-2.94213e-06
0.000154703
-2.88904e-06
0.000155229
-2.82705e-06
0.000155741
-2.75553e-06
0.000156236
-2.67378e-06
0.000156714
-2.581e-06
0.000157172
-2.47627e-06
0.000157607
-2.35854e-06
0.000158019
-2.22662e-06
0.000158403
-2.07911e-06
0.000158757
-1.91437e-06
0.000159079
-1.73052e-06
0.000159364
-1.52531e-06
0.000159611
-1.29613e-06
0.000159815
-1.03986e-06
0.000159971
-7.5282e-07
0.000160077
-4.30614e-07
0.000160128
-6.80384e-08
0.00016012
3.41098e-07
0.000160048
8.04146e-07
0.00015991
1.33006e-06
0.000159704
1.92948e-06
0.000159428
2.615e-06
0.000159088
3.40134e-06
0.000158691
4.30535e-06
0.000158256
5.34571e-06
0.000157812
6.54194e-06
0.000157408
7.91226e-06
0.000157115
9.46931e-06
0.000157033
1.12127e-05
0.000157291
1.31162e-05
0.000158024
1.51091e-05
0.000159327
1.70532e-05
1.87283e-05
0.000161141
0.000139795
-4.61856e-07
0.00013994
-8.81159e-07
0.000140147
-1.23506e-06
0.000140406
-1.53853e-06
0.00014071
-1.8013e-06
0.000141054
-2.0304e-06
0.000141433
-2.23093e-06
0.000141842
-2.40673e-06
0.000142277
-2.56075e-06
0.000142735
-2.69522e-06
0.000143214
-2.81185e-06
0.000143709
-2.91206e-06
0.000144219
-2.9971e-06
0.000144741
-3.06817e-06
0.000145272
-3.12657e-06
0.000145811
-3.17373e-06
0.000146357
-3.21122e-06
0.000146906
-3.24075e-06
0.00014746
-3.26412e-06
0.000148016
-3.28311e-06
0.000148574
-3.29945e-06
0.000149134
-3.31468e-06
0.000149696
-3.3301e-06
0.00015026
-3.34675e-06
0.000150826
-3.36535e-06
0.000151395
-3.38631e-06
0.000151966
-3.40974e-06
0.000152541
-3.43553e-06
0.00015312
-3.46331e-06
0.000153702
-3.49257e-06
0.000154289
-3.52267e-06
0.00015488
-3.5529e-06
0.000155474
-3.58251e-06
0.000156072
-3.61075e-06
0.000156673
-3.63685e-06
0.000157277
-3.66011e-06
0.000157884
-3.67985e-06
0.000158492
-3.69542e-06
0.0001591
-3.70625e-06
0.000159708
-3.71177e-06
0.000160316
-3.71147e-06
0.000160921
-3.70483e-06
0.000161522
-3.6914e-06
0.000162119
-3.67068e-06
0.000162711
-3.6422e-06
0.000163295
-3.60548e-06
0.00016387
-3.56e-06
0.000164436
-3.50522e-06
0.00016499
-3.44056e-06
0.000165531
-3.36537e-06
0.000166056
-3.27894e-06
0.000166565
-3.18047e-06
0.000167056
-3.06907e-06
0.000167526
-2.94374e-06
0.000167973
-2.80331e-06
0.000168395
-2.64648e-06
0.00016879
-2.47173e-06
0.000169155
-2.27732e-06
0.000169488
-2.06126e-06
0.000169786
-1.8212e-06
0.000170047
-1.55445e-06
0.000170267
-1.25787e-06
0.000170444
-9.27784e-07
0.000170575
-5.59949e-07
0.000170659
-1.4944e-07
0.000170693
3.09364e-07
0.000170676
8.22893e-07
0.000170609
1.39866e-06
0.000170496
2.04519e-06
0.000170341
2.77194e-06
0.000170155
3.58914e-06
0.000169955
4.50739e-06
0.000169766
5.53686e-06
0.000169623
6.68599e-06
0.000169578
7.95928e-06
0.000169695
9.35397e-06
0.000170055
1.08551e-05
0.000170744
1.24288e-05
0.00017184
1.40145e-05
0.000173377
1.55186e-05
1.68171e-05
0.00017529
0.000149584
-5.37796e-07
0.000149736
-1.03308e-06
0.000149952
-1.45109e-06
0.000150224
-1.81014e-06
0.000150545
-2.1212e-06
0.000150907
-2.39236e-06
0.000151306
-2.62959e-06
0.000151738
-2.83747e-06
0.000152198
-3.01947e-06
0.000152682
-3.17824e-06
0.000153187
-3.31584e-06
0.00015371
-3.43394e-06
0.000154248
-3.53403e-06
0.000154799
-3.61754e-06
0.00015536
-3.68601e-06
0.000155929
-3.7411e-06
0.000156504
-3.78467e-06
0.000157084
-3.81875e-06
0.000157667
-3.84543e-06
0.000158253
-3.86683e-06
0.000158841
-3.88497e-06
0.00015943
-3.90166e-06
0.00016002
-3.91848e-06
0.000160612
-3.93663e-06
0.000161206
-3.95697e-06
0.000161802
-3.98001e-06
0.000162401
-4.00591e-06
0.000163002
-4.03451e-06
0.000163607
-4.06542e-06
0.000164215
-4.09804e-06
0.000164826
-4.13163e-06
0.000165441
-4.16536e-06
0.00016606
-4.19835e-06
0.000166681
-4.22971e-06
0.000167305
-4.25857e-06
0.000167932
-4.28408e-06
0.00016856
-4.30545e-06
0.000169189
-4.32194e-06
0.000169819
-4.33284e-06
0.000170447
-4.33753e-06
0.000171074
-4.33538e-06
0.000171697
-4.32581e-06
0.000172317
-4.30829e-06
0.000172931
-4.28225e-06
0.000173539
-4.24717e-06
0.000174138
-4.20248e-06
0.000174729
-4.14762e-06
0.000175308
-4.08198e-06
0.000175875
-4.00491e-06
0.000176428
-3.9157e-06
0.000176965
-3.81359e-06
0.000177485
-3.69772e-06
0.000177986
-3.56712e-06
0.000178465
-3.42073e-06
0.000178922
-3.25735e-06
0.000179353
-3.0756e-06
0.000179758
-2.87393e-06
0.000180134
-2.6506e-06
0.000180478
-2.40359e-06
0.00018079
-2.13063e-06
0.000181067
-1.82911e-06
0.000181308
-1.49607e-06
0.00018151
-1.12816e-06
0.000181674
-7.21555e-07
0.000181799
-2.72014e-07
0.000181886
2.25125e-07
0.000181936
7.74866e-07
0.000181954
1.38276e-06
0.000181947
2.05471e-06
0.000181924
2.79672e-06
0.000181901
3.61451e-06
0.000181897
4.51297e-06
0.000181941
5.49532e-06
0.000182067
6.56197e-06
0.000182319
7.70884e-06
0.00018275
8.92535e-06
0.000183415
1.01918e-05
0.000184369
1.14769e-05
0.00018565
1.27351e-05
0.000187263
1.39072e-05
1.4925e-05
0.000189157
0.000160058
-6.1644e-07
0.000160217
-1.19135e-06
0.000160443
-1.677e-06
0.000160728
-2.09483e-06
0.000161064
-2.4571e-06
0.000161446
-2.77289e-06
0.000161866
-3.04908e-06
0.00016232
-3.29097e-06
0.000162805
-3.50261e-06
0.000163314
-3.68709e-06
0.000163847
-3.84683e-06
0.000164398
-3.98378e-06
0.000164965
-4.09968e-06
0.000165545
-4.19621e-06
0.000166136
-4.27514e-06
0.000166735
-4.33841e-06
0.00016734
-4.38817e-06
0.00016795
-4.42675e-06
0.000168563
-4.45658e-06
0.000169179
-4.48011e-06
0.000169796
-4.49969e-06
0.000170414
-4.51743e-06
0.000171033
-4.53513e-06
0.000171653
-4.55423e-06
0.000172274
-4.57573e-06
0.000172897
-4.60025e-06
0.000173521
-4.62797e-06
0.000174148
-4.65876e-06
0.000174777
-4.69216e-06
0.00017541
-4.7275e-06
0.000176045
-4.76393e-06
0.000176682
-4.80051e-06
0.000177323
-4.83623e-06
0.000177966
-4.87006e-06
0.000178611
-4.901e-06
0.000179258
-4.92807e-06
0.000179906
-4.95037e-06
0.000180554
-4.96704e-06
0.000181201
-4.97728e-06
0.000181847
-4.98035e-06
0.00018249
-4.97555e-06
0.000183129
-4.96224e-06
0.000183764
-4.93978e-06
0.000184392
-4.90758e-06
0.000185012
-4.86503e-06
0.000185624
-4.81151e-06
0.000186226
-4.74642e-06
0.000186816
-4.66909e-06
0.000187393
-4.57884e-06
0.000187955
-4.47491e-06
0.0001885
-4.3565e-06
0.000189028
-4.22272e-06
0.000189536
-4.07259e-06
0.000190023
-3.90504e-06
0.000190487
-3.71884e-06
0.000190927
-3.51267e-06
0.000191341
-3.28501e-06
0.000191727
-3.03419e-06
0.000192084
-2.75833e-06
0.000192412
-2.45535e-06
0.000192708
-2.12292e-06
0.000192973
-1.75846e-06
0.000193206
-1.35915e-06
0.000193409
-9.21891e-07
0.000193583
-4.43376e-07
0.000193731
7.98654e-08
0.000193857
6.51196e-07
0.000193968
1.27394e-06
0.000194073
1.9514e-06
0.000194186
2.68635e-06
0.000194322
3.48069e-06
0.000194502
4.3349e-06
0.000194752
5.2474e-06
0.000195103
6.21374e-06
0.000195588
7.22567e-06
0.000196246
8.27012e-06
0.000197111
9.32824e-06
0.000198215
1.03748e-05
0.000199574
1.13782e-05
0.000201182
1.23022e-05
1.31098e-05
0.000202999
0.000171266
-6.97864e-07
0.000171431
-1.35592e-06
0.000171667
-1.91272e-06
0.000171965
-2.39252e-06
0.000172318
-2.80891e-06
0.000172717
-3.17193e-06
0.000173158
-3.48936e-06
0.000173636
-3.76724e-06
0.000174144
-4.01021e-06
0.00017468
-4.22182e-06
0.00017524
-4.40487e-06
0.000175819
-4.56163e-06
0.000176415
-4.6941e-06
0.000177025
-4.80422e-06
0.000177645
-4.894e-06
0.000178274
-4.96567e-06
0.00017891
-5.02168e-06
0.00017955
-5.06468e-06
0.000180193
-5.09745e-06
0.000180838
-5.12279e-06
0.000181484
-5.14335e-06
0.00018213
-5.16158e-06
0.000182777
-5.17956e-06
0.000183425
-5.19893e-06
0.000184072
-5.22087e-06
0.000184721
-5.24609e-06
0.00018537
-5.27486e-06
0.000186021
-5.30702e-06
0.000186674
-5.34209e-06
0.000187329
-5.37932e-06
0.000187986
-5.41778e-06
0.000188644
-5.45638e-06
0.000189305
-5.49399e-06
0.000189967
-5.52945e-06
0.000190631
-5.56162e-06
0.000191295
-5.58941e-06
0.00019196
-5.61178e-06
0.000192624
-5.62775e-06
0.000193286
-5.63643e-06
0.000193946
-5.63699e-06
0.000194602
-5.62865e-06
0.000195253
-5.61067e-06
0.000195899
-5.58237e-06
0.000196537
-5.54309e-06
0.000197168
-5.49217e-06
0.000197788
-5.42897e-06
0.000198398
-5.35282e-06
0.000198995
-5.26305e-06
0.000199578
-5.15893e-06
0.000200145
-5.03971e-06
0.000200696
-4.90458e-06
0.000201229
-4.75266e-06
0.000201743
-4.58299e-06
0.000202235
-4.39453e-06
0.000202705
-4.18614e-06
0.000203152
-3.95658e-06
0.000203574
-3.70447e-06
0.000203971
-3.42832e-06
0.000204342
-3.1265e-06
0.000204687
-2.79724e-06
0.000205005
-2.43865e-06
0.000205298
-2.0487e-06
0.000205567
-1.62526e-06
0.000205814
-1.16612e-06
0.000206042
-6.69058e-07
0.000206256
-1.31908e-07
0.000206463
4.47156e-07
0.00020667
1.06934e-06
0.000206888
1.73563e-06
0.000207131
2.44621e-06
0.000207414
3.20016e-06
0.000207756
3.99504e-06
0.000208179
4.82654e-06
0.000208707
5.68799e-06
0.000209365
6.56996e-06
0.000210178
7.45995e-06
0.000211166
8.34226e-06
0.000212345
9.19817e-06
0.000213719
1.00067e-05
0.000215277
1.07461e-05
1.13965e-05
0.000216992
0.000183259
-7.82117e-07
0.00018343
-1.5267e-06
0.000183676
-2.15811e-06
0.000183987
-2.70301e-06
0.000184355
-3.17643e-06
0.000184773
-3.58927e-06
0.000185235
-3.95021e-06
0.000185735
-4.26605e-06
0.000186268
-4.54203e-06
0.000186829
-4.78222e-06
0.000187416
-4.98977e-06
0.000188023
-5.1673e-06
0.000188648
-5.31709e-06
0.000189286
-5.44134e-06
0.000189937
-5.54234e-06
0.000190596
-5.62261e-06
0.000191261
-5.68489e-06
0.000191931
-5.73218e-06
0.000192603
-5.76761e-06
0.000193277
-5.79432e-06
0.000193951
-5.81535e-06
0.000194626
-5.83343e-06
0.0001953
-5.85093e-06
0.000195973
-5.86975e-06
0.000196647
-5.89124e-06
0.00019732
-5.91625e-06
0.000197993
-5.94509e-06
0.000198666
-5.97764e-06
0.000199341
-6.01337e-06
0.000200016
-6.05149e-06
0.000200692
-6.09094e-06
0.000201369
-6.13055e-06
0.000202048
-6.16903e-06
0.000202726
-6.20511e-06
0.000203406
-6.2375e-06
0.000204084
-6.26499e-06
0.000204762
-6.2864e-06
0.000205438
-6.30067e-06
0.000206112
-6.30678e-06
0.000206782
-6.30381e-06
0.000207448
-6.29091e-06
0.000208108
-6.26728e-06
0.000208761
-6.23217e-06
0.000209406
-6.18488e-06
0.000210042
-6.1247e-06
0.000210667
-6.05097e-06
0.00021128
-5.96301e-06
0.000211881
-5.86013e-06
0.000212466
-5.74162e-06
0.000213037
-5.60673e-06
0.00021359
-5.4547e-06
0.000214125
-5.2847e-06
0.000214641
-5.09583e-06
0.000215137
-4.88717e-06
0.000215612
-4.65769e-06
0.000216064
-4.40631e-06
0.000216495
-4.1319e-06
0.000216903
-3.83322e-06
0.000217288
-3.509e-06
0.000217652
-3.15789e-06
0.000217995
-2.77853e-06
0.000218318
-2.36954e-06
0.000218625
-1.92956e-06
0.00021892
-1.45734e-06
0.000219205
-9.51766e-07
0.000219488
-4.11942e-07
0.000219775
1.62678e-07
0.000220075
7.71713e-07
0.000220399
1.41418e-06
0.00022076
2.08846e-06
0.000221171
2.79186e-06
0.000221648
3.5204e-06
0.000222208
4.26861e-06
0.00022287
5.02938e-06
0.000223648
5.79385e-06
0.000224559
6.55148e-06
0.000225614
7.29017e-06
0.000226817
7.99675e-06
0.000228169
8.65766e-06
0.000229657
9.26005e-06
9.79333e-06
0.000231263
0.000196092
-8.69201e-07
0.000196269
-1.70356e-06
0.000196524
-2.41293e-06
0.000196848
-3.02603e-06
0.000197231
-3.55927e-06
0.000197667
-4.02449e-06
0.000198149
-4.43119e-06
0.000198671
-4.78694e-06
0.000199228
-5.09761e-06
0.000199815
-5.36776e-06
0.000200428
-5.60098e-06
0.000201062
-5.80021e-06
0.000201715
-5.96804e-06
0.000202382
-6.10695e-06
0.000203062
-6.2195e-06
0.00020375
-6.30851e-06
0.000204444
-6.37705e-06
0.000205143
-6.42844e-06
0.000205844
-6.46618e-06
0.000206546
-6.49378e-06
0.000207248
-6.51462e-06
0.000207949
-6.5318e-06
0.000208649
-6.54797e-06
0.000209347
-6.56527e-06
0.000210044
-6.58529e-06
0.00021074
-6.60897e-06
0.000211435
-6.63675e-06
0.000212129
-6.6685e-06
0.000212822
-6.70371e-06
0.000213515
-6.7415e-06
0.000214209
-6.78074e-06
0.000214901
-6.82013e-06
0.000215594
-6.85829e-06
0.000216286
-6.89378e-06
0.000216977
-6.9252e-06
0.000217667
-6.9512e-06
0.000218355
-6.97049e-06
0.000219039
-6.98189e-06
0.00021972
-6.9843e-06
0.000220397
-6.9767e-06
0.000221068
-6.95816e-06
0.000221732
-6.92783e-06
0.000222388
-6.88491e-06
0.000223035
-6.82866e-06
0.000223672
-6.75836e-06
0.000224298
-6.67334e-06
0.000224912
-6.57291e-06
0.000225511
-6.45641e-06
0.000226096
-6.32316e-06
0.000226666
-6.17248e-06
0.000227218
-6.00365e-06
0.000227753
-5.81596e-06
0.000228269
-5.60863e-06
0.000228766
-5.38087e-06
0.000229243
-5.13188e-06
0.000229701
-4.86079e-06
0.000230139
-4.56676e-06
0.000230558
-4.24889e-06
0.000230959
-3.90632e-06
0.000231342
-3.5382e-06
0.00023171
-3.14375e-06
0.000232066
-2.72227e-06
0.000232413
-2.27318e-06
0.000232755
-1.79613e-06
0.000233097
-1.29099e-06
0.000233446
-7.57973e-07
0.000233809
-1.97586e-07
0.000234195
3.88878e-07
0.000234613
9.99046e-07
0.000235074
1.63015e-06
0.00023559
2.27863e-06
0.000236173
2.93995e-06
0.000236836
3.60858e-06
0.00023759
4.27798e-06
0.000238446
4.94065e-06
0.000239412
5.58832e-06
0.000240493
6.21215e-06
0.000241689
6.80318e-06
0.000242996
7.35283e-06
0.000244405
7.85358e-06
8.29993e-06
0.000245901
0.000209823
-9.59063e-07
0.000210006
-1.88628e-06
0.00021027
-2.67683e-06
0.000210606
-3.36108e-06
0.000211004
-3.95688e-06
0.000211457
-4.47693e-06
0.000211959
-4.93157e-06
0.000212502
-5.32912e-06
0.000213082
-5.6761e-06
0.000213693
-5.97757e-06
0.000214332
-6.23756e-06
0.000214992
-6.45938e-06
0.000215672
-6.64592e-06
0.000216367
-6.79995e-06
0.000217074
-6.92434e-06
0.00021779
-7.02219e-06
0.000218513
-7.09689e-06
0.000219239
-7.15213e-06
0.000219967
-7.19176e-06
0.000220696
-7.21966e-06
0.000221423
-7.23958e-06
0.000222149
-7.25498e-06
0.000222873
-7.26882e-06
0.000223595
-7.28351e-06
0.000224313
-7.30085e-06
0.00022503
-7.32195e-06
0.000225744
-7.34734e-06
0.000226455
-7.37694e-06
0.000227165
-7.41023e-06
0.000227874
-7.44629e-06
0.00022858
-7.48391e-06
0.000229285
-7.52168e-06
0.000229989
-7.55811e-06
0.00023069
-7.59164e-06
0.00023139
-7.62073e-06
0.000232086
-7.64391e-06
0.000232779
-7.65977e-06
0.000233468
-7.66704e-06
0.000234152
-7.6645e-06
0.00023483
-7.65107e-06
0.000235502
-7.62575e-06
0.000236165
-7.58765e-06
0.00023682
-7.53592e-06
0.000237465
-7.4698e-06
0.000238099
-7.38858e-06
0.000238721
-7.29159e-06
0.00023933
-7.17817e-06
0.000239925
-7.04772e-06
0.000240505
-6.89961e-06
0.000241069
-6.73325e-06
0.000241618
-6.54805e-06
0.000242149
-6.3434e-06
0.000242662
-6.11872e-06
0.000243158
-5.87341e-06
0.000243637
-5.6069e-06
0.000244098
-5.31862e-06
0.000244543
-5.00803e-06
0.000244972
-4.67465e-06
0.000245388
-4.31805e-06
0.000245791
-3.9379e-06
0.000246184
-3.53397e-06
0.000246572
-3.10621e-06
0.000246956
-2.65477e-06
0.000247344
-2.18004e-06
0.000247739
-1.68271e-06
0.000248148
-1.16383e-06
0.000248578
-6.24803e-07
0.000249037
-6.72963e-08
0.000249534
5.05938e-07
0.000250076
1.09123e-06
0.000250672
1.68482e-06
0.000251333
2.28228e-06
0.000252066
2.87862e-06
0.000252879
3.4683e-06
0.000253777
4.0454e-06
0.000254764
4.6037e-06
0.000255842
5.13701e-06
0.000257009
5.63936e-06
0.000258259
6.1054e-06
0.000259584
6.53081e-06
6.91288e-06
0.000260974
0.000224515
-1.05159e-06
0.000224704
-2.07453e-06
0.000224977
-2.94928e-06
0.000225324
-3.70749e-06
0.000225736
-4.36842e-06
0.000226206
-4.94564e-06
0.000226726
-5.45028e-06
0.000227289
-5.89143e-06
0.000227891
-6.27622e-06
0.000228525
-6.61029e-06
0.000229187
-6.89808e-06
0.000229873
-7.14329e-06
0.000230578
-7.34913e-06
0.000231299
-7.51869e-06
0.000232032
-7.65511e-06
0.000232774
-7.76181e-06
0.000233523
-7.84251e-06
0.000234274
-7.90125e-06
0.000235028
-7.94224e-06
0.000235781
-7.96976e-06
0.000236532
-7.98792e-06
0.000237281
-8.00054e-06
0.000238026
-8.01092e-06
0.000238768
-8.02176e-06
0.000239505
-8.03507e-06
0.000240239
-8.05217e-06
0.000240969
-8.07366e-06
0.000241695
-8.09957e-06
0.000242418
-8.12938e-06
0.000243137
-8.16211e-06
0.000243854
-8.19651e-06
0.000244567
-8.23109e-06
0.000245277
-8.26422e-06
0.000245984
-8.29423e-06
0.000246686
-8.31948e-06
0.000247385
-8.33836e-06
0.000248078
-8.34937e-06
0.000248766
-8.35111e-06
0.000249448
-8.34231e-06
0.000250123
-8.3218e-06
0.00025079
-8.28853e-06
0.000251448
-8.24157e-06
0.000252096
-8.18005e-06
0.000252734
-8.10322e-06
0.000253359
-8.01037e-06
0.000253973
-7.90087e-06
0.000254573
-7.77413e-06
0.000255159
-7.62959e-06
0.00025573
-7.46675e-06
0.000256286
-7.28512e-06
0.000256826
-7.08425e-06
0.00025735
-6.86372e-06
0.000257858
-6.62314e-06
0.000258351
-6.36215e-06
0.000258828
-6.08045e-06
0.000259291
-5.77777e-06
0.000259741
-5.45395e-06
0.000260179
-5.10887e-06
0.000260607
-4.74256e-06
0.000261028
-4.35515e-06
0.000261445
-3.94695e-06
0.00026186
-3.51845e-06
0.00026228
-3.07038e-06
0.000262707
-2.60372e-06
0.000263147
-2.11975e-06
0.000263607
-1.62006e-06
0.000264092
-1.10658e-06
0.00026461
-5.81511e-07
0.000265166
-4.72128e-08
0.000265768
4.9286e-07
0.000266421
1.03464e-06
0.000267133
1.57416e-06
0.000267907
2.10721e-06
0.00026875
2.62936e-06
0.000269662
3.1361e-06
0.000270646
3.62298e-06
0.0002717
4.0857e-06
0.000272822
4.5204e-06
0.000274007
4.92377e-06
0.000275247
5.2934e-06
5.62811e-06
0.000276535
0.000240237
-1.14657e-06
0.00024043
-2.26786e-06
0.000240711
-3.22954e-06
0.000241068
-4.06431e-06
0.000241493
-4.79273e-06
0.000241978
-5.42927e-06
0.000242515
-5.98582e-06
0.000243097
-6.4722e-06
0.000243718
-6.8962e-06
0.000244374
-7.264e-06
0.000245058
-7.5805e-06
0.000245767
-7.84978e-06
0.000246495
-8.07541e-06
0.000247239
-8.26077e-06
0.000247996
-8.40931e-06
0.000248762
-8.52477e-06
0.000249533
-8.6112e-06
0.000250308
-8.67298e-06
0.000251083
-8.71471e-06
0.000251858
-8.74104e-06
0.000252629
-8.75648e-06
0.000253397
-8.7652e-06
0.000254161
-8.77086e-06
0.000254919
-8.77645e-06
0.000255672
-8.78424e-06
0.000256419
-8.79573e-06
0.000257161
-8.81169e-06
0.000257898
-8.8322e-06
0.000258629
-8.85676e-06
0.000259355
-8.88442e-06
0.000260077
-8.91384e-06
0.000260793
-8.94346e-06
0.000261505
-8.97156e-06
0.000262211
-8.99637e-06
0.000262912
-9.01612e-06
0.000263607
-9.02911e-06
0.000264295
-9.03373e-06
0.000264977
-9.02849e-06
0.000265651
-9.01204e-06
0.000266317
-8.98317e-06
0.000266974
-8.94078e-06
0.00026762
-8.8839e-06
0.000268256
-8.81169e-06
0.000268881
-8.72339e-06
0.000269493
-8.61834e-06
0.000270092
-8.49595e-06
0.000270678
-8.35572e-06
0.00027125