/*--------------------------------*- C++ -*----------------------------------*\
| =========                 |                                                 |
| \\      /  F ield         | OpenFOAM: The Open Source CFD Toolbox           |
|  \\    /   O peration     | Version:  2106                                  |
|   \\  /    A nd           | Website:  www.openfoam.com                      |
|    \\/     M anipulation  |                                                 |
\*---------------------------------------------------------------------------*/
FoamFile
{
    version     2.0;
    format      ascii;
    arch        "LSB;label=32;scalar=64";
    class       volScalarField;
    location    "2.4";
    object      T;
}
// * * * * * * * * * * * * * * * * * * * * * * * * * * * * * * * * * * * * * //

dimensions      [0 0 0 1 0 0 0];

internalField   nonuniform List<scalar> 
12013
(
300.002
300.005
300.009
300.012
300.016
300.021
300.025
300.03
300.035
300.041
300.046
300.052
300.059
300.066
300.073
300.081
300.09
300.099
300.108
300.118
300.128
300.139
300.151
300.163
300.176
300.19
300.204
300.219
300.235
300.251
300.268
300.286
300.304
300.324
300.344
300.365
300.387
300.409
300.432
300.457
300.482
300.508
300.535
300.563
300.591
300.621
300.652
300.683
300.716
300.75
300.784
300.82
300.857
300.895
300.934
300.975
301.016
301.059
301.103
301.148
301.195
301.244
301.293
301.345
301.398
301.452
301.509
301.568
301.629
301.692
301.758
301.826
301.898
301.973
302.053
302.137
302.227
302.325
302.433
302.556
302.701
300.002
300.005
300.009
300.012
300.016
300.021
300.025
300.03
300.035
300.041
300.046
300.052
300.059
300.066
300.073
300.081
300.09
300.099
300.108
300.118
300.128
300.139
300.151
300.163
300.176
300.19
300.204
300.219
300.235
300.251
300.268
300.286
300.304
300.324
300.344
300.365
300.386
300.409
300.432
300.457
300.482
300.508
300.535
300.563
300.591
300.621
300.652
300.683
300.716
300.75
300.784
300.82
300.857
300.895
300.934
300.974
301.016
301.059
301.103
301.148
301.195
301.243
301.293
301.344
301.397
301.452
301.508
301.567
301.627
301.69
301.756
301.824
301.895
301.97
302.049
302.132
302.221
302.317
302.42
302.534
302.659
300.002
300.005
300.009
300.012
300.016
300.021
300.025
300.03
300.035
300.041
300.046
300.052
300.059
300.066
300.073
300.081
300.09
300.099
300.108
300.118
300.128
300.139
300.151
300.163
300.176
300.19
300.204
300.219
300.235
300.251
300.268
300.286
300.304
300.324
300.344
300.365
300.386
300.409
300.432
300.456
300.482
300.508
300.534
300.562
300.591
300.621
300.651
300.683
300.716
300.749
300.784
300.82
300.856
300.894
300.933
300.974
301.015
301.058
301.102
301.147
301.194
301.242
301.291
301.342
301.395
301.45
301.506
301.564
301.624
301.687
301.752
301.82
301.89
301.964
302.041
302.122
302.208
302.299
302.396
302.499
302.605
300.002
300.005
300.009
300.012
300.016
300.021
300.025
300.03
300.035
300.041
300.046
300.052
300.059
300.066
300.073
300.081
300.09
300.099
300.108
300.118
300.128
300.139
300.151
300.163
300.176
300.19
300.204
300.219
300.235
300.251
300.268
300.286
300.304
300.323
300.344
300.364
300.386
300.409
300.432
300.456
300.481
300.507
300.534
300.562
300.591
300.62
300.651
300.682
300.715
300.749
300.783
300.819
300.856
300.893
300.932
300.973
301.014
301.056
301.1
301.145
301.192
301.24
301.289
301.34
301.392
301.446
301.502
301.56
301.62
301.682
301.746
301.812
301.881
301.953
302.028
302.107
302.189
302.274
302.363
302.455
302.547
300.002
300.005
300.009
300.012
300.016
300.021
300.025
300.03
300.035
300.04
300.046
300.052
300.059
300.066
300.073
300.081
300.09
300.098
300.108
300.118
300.128
300.139
300.151
300.163
300.176
300.19
300.204
300.219
300.234
300.251
300.268
300.285
300.304
300.323
300.343
300.364
300.386
300.408
300.432
300.456
300.481
300.507
300.534
300.561
300.59
300.62
300.65
300.682
300.714
300.748
300.782
300.818
300.854
300.892
300.931
300.971
301.012
301.054
301.098
301.143
301.189
301.237
301.286
301.336
301.388
301.442
301.497
301.554
301.613
301.674
301.737
301.802
301.869
301.939
302.011
302.086
302.163
302.243
302.325
302.407
302.488
300.002
300.005
300.009
300.012
300.016
300.021
300.025
300.03
300.035
300.04
300.046
300.052
300.059
300.066
300.073
300.081
300.09
300.098
300.108
300.118
300.128
300.139
300.151
300.163
300.176
300.189
300.204
300.219
300.234
300.25
300.267
300.285
300.304
300.323
300.343
300.364
300.385
300.408
300.431
300.455
300.48
300.506
300.533
300.561
300.589
300.619
300.649
300.68
300.713
300.746
300.781
300.816
300.853
300.89
300.929
300.969
301.01
301.052
301.095
301.14
301.185
301.233
301.281
301.331
301.382
301.435
301.49
301.546
301.604
301.663
301.725
301.788
301.853
301.92
301.989
302.06
302.133
302.207
302.281
302.355
302.429
300.002
300.005
300.009
300.012
300.016
300.021
300.025
300.03
300.035
300.04
300.046
300.052
300.059
300.066
300.073
300.081
300.089
300.098
300.108
300.118
300.128
300.139
300.151
300.163
300.176
300.189
300.203
300.218
300.234
300.25
300.267
300.285
300.303
300.322
300.342
300.363
300.385
300.407
300.43
300.454
300.479
300.505
300.532
300.559
300.588
300.617
300.648
300.679
300.711
300.744
300.779
300.814
300.85
300.888
300.926
300.966
301.006
301.048
301.091
301.135
301.181
301.227
301.275
301.324
301.375
301.427
301.481
301.536
301.592
301.65
301.71
301.771
301.833
301.898
301.963
302.03
302.098
302.166
302.234
302.302
302.368
300.002
300.005
300.009
300.012
300.016
300.021
300.025
300.03
300.035
300.04
300.046
300.052
300.059
300.066
300.073
300.081
300.089
300.098
300.108
300.117
300.128
300.139
300.15
300.163
300.176
300.189
300.203
300.218
300.233
300.25
300.267
300.284
300.303
300.322
300.342
300.363
300.384
300.406
300.43
300.454
300.478
300.504
300.531
300.558
300.586
300.616
300.646
300.677
300.709
300.742
300.776
300.811
300.847
300.884
300.923
300.962
301.002
301.043
301.086
301.13
301.174
301.22
301.268
301.316
301.366
301.417
301.469
301.523
301.577
301.634
301.691
301.75
301.81
301.871
301.933
301.995
302.058
302.122
302.184
302.246
302.307
300.002
300.005
300.009
300.012
300.016
300.021
300.025
300.03
300.035
300.04
300.046
300.052
300.059
300.066
300.073
300.081
300.089
300.098
300.107
300.117
300.128
300.139
300.15
300.162
300.175
300.189
300.203
300.218
300.233
300.249
300.266
300.284
300.302
300.321
300.341
300.362
300.383
300.405
300.428
300.452
300.477
300.503
300.529
300.556
300.585
300.614
300.644
300.675
300.707
300.739
300.773
300.808
300.844
300.88
300.918
300.957
300.997
301.038
301.079
301.123
301.167
301.212
301.258
301.306
301.354
301.404
301.455
301.507
301.56
301.614
301.669
301.726
301.783
301.84
301.899
301.957
302.016
302.074
302.132
302.19
302.245
300.002
300.005
300.009
300.012
300.016
300.021
300.025
300.03
300.035
300.04
300.046
300.052
300.059
300.066
300.073
300.081
300.089
300.098
300.107
300.117
300.127
300.138
300.15
300.162
300.175
300.188
300.202
300.217
300.232
300.249
300.265
300.283
300.301
300.32
300.34
300.361
300.382
300.404
300.427
300.451
300.475
300.501
300.527
300.554
300.582
300.611
300.641
300.672
300.703
300.736
300.769
300.804
300.839
300.875
300.913
300.951
300.99
301.03
301.072
301.114
301.157
301.202
301.247
301.293
301.341
301.389
301.438
301.488
301.54
301.592
301.644
301.698
301.752
301.806
301.861
301.916
301.971
302.025
302.078
302.131
302.183
300.002
300.005
300.009
300.012
300.016
300.021
300.025
300.03
300.035
300.04
300.046
300.052
300.058
300.065
300.073
300.081
300.089
300.098
300.107
300.117
300.127
300.138
300.149
300.162
300.174
300.188
300.202
300.216
300.232
300.248
300.264
300.282
300.3
300.319
300.339
300.359
300.38
300.402
300.425
300.449
300.473
300.499
300.525
300.552
300.579
300.608
300.638
300.668
300.699
300.732
300.765
300.799
300.834
300.869
300.906
300.944
300.982
301.022
301.062
301.104
301.146
301.189
301.234
301.279
301.324
301.371
301.419
301.467
301.516
301.566
301.616
301.667
301.718
301.769
301.82
301.872
301.922
301.973
302.023
302.071
302.119
300.002
300.005
300.009
300.012
300.016
300.02
300.025
300.03
300.035
300.04
300.046
300.052
300.058
300.065
300.072
300.08
300.088
300.097
300.106
300.116
300.127
300.137
300.149
300.161
300.174
300.187
300.201
300.215
300.231
300.247
300.263
300.281
300.299
300.318
300.337
300.358
300.379
300.401
300.423
300.447
300.471
300.496
300.522
300.548
300.576
300.604
300.634
300.664
300.695
300.726
300.759
300.792
300.827
300.862
300.898
300.935
300.973
301.012
301.051
301.092
301.133
301.175
301.218
301.261
301.306
301.351
301.397
301.443
301.49
301.537
301.585
301.633
301.681
301.729
301.777
301.825
301.872
301.919
301.965
302.01
302.055
300.002
300.005
300.009
300.012
300.016
300.02
300.025
300.03
300.035
300.04
300.046
300.052
300.058
300.065
300.072
300.08
300.088
300.097
300.106
300.116
300.126
300.137
300.148
300.16
300.173
300.186
300.2
300.215
300.23
300.246
300.262
300.279
300.297
300.316
300.335
300.356
300.377
300.398
300.421
300.444
300.468
300.493
300.518
300.545
300.572
300.6
300.629
300.658
300.689
300.72
300.752
300.785
300.819
300.854
300.889
300.925
300.962
301
301.038
301.078
301.118
301.158
301.2
301.242
301.285
301.328
301.372
301.416
301.46
301.505
301.55
301.595
301.641
301.686
301.731
301.775
301.819
301.863
301.906
301.948
301.99
300.002
300.005
300.009
300.012
300.016
300.02
300.025
300.029
300.034
300.04
300.045
300.051
300.058
300.065
300.072
300.08
300.088
300.096
300.106
300.115
300.125
300.136
300.148
300.159
300.172
300.185
300.199
300.213
300.228
300.244
300.261
300.278
300.296
300.314
300.333
300.353
300.374
300.395
300.418
300.441
300.464
300.489
300.514
300.54
300.567
300.595
300.623
300.652
300.682
300.713
300.744
300.777
300.81
300.844
300.878
300.913
300.949
300.986
301.023
301.062
301.1
301.139
301.179
301.22
301.261
301.302
301.344
301.386
301.428
301.47
301.513
301.555
301.598
301.64
301.682
301.724
301.765
301.805
301.845
301.885
301.923
300.002
300.005
300.008
300.012
300.016
300.02
300.025
300.029
300.034
300.04
300.045
300.051
300.058
300.064
300.072
300.079
300.087
300.096
300.105
300.115
300.125
300.135
300.147
300.159
300.171
300.184
300.198
300.212
300.227
300.242
300.259
300.276
300.293
300.312
300.331
300.35
300.371
300.392
300.414
300.437
300.46
300.484
300.509
300.535
300.561
300.588
300.616
300.645
300.674
300.704
300.735
300.767
300.799
300.832
300.866
300.9
300.935
300.97
301.006
301.043
301.08
301.118
301.156
301.195
301.234
301.273
301.313
301.353
301.393
301.433
301.473
301.513
301.552
301.592
301.631
301.67
301.708
301.746
301.783
301.82
301.856
300.002
300.005
300.008
300.012
300.016
300.02
300.024
300.029
300.034
300.039
300.045
300.051
300.057
300.064
300.071
300.079
300.087
300.095
300.104
300.114
300.124
300.134
300.146
300.157
300.17
300.183
300.196
300.21
300.225
300.241
300.257
300.273
300.291
300.309
300.328
300.347
300.367
300.388
300.41
300.432
300.455
300.479
300.504
300.529
300.555
300.581
300.608
300.636
300.665
300.695
300.725
300.755
300.787
300.819
300.851
300.884
300.918
300.952
300.987
301.022
301.058
301.094
301.131
301.168
301.205
301.242
301.28
301.317
301.355
301.392
301.43
301.467
301.505
301.542
301.578
301.614
301.65
301.685
301.72
301.754
301.787
300.002
300.005
300.008
300.012
300.016
300.02
300.024
300.029
300.034
300.039
300.045
300.05
300.057
300.063
300.071
300.078
300.086
300.095
300.103
300.113
300.123
300.133
300.144
300.156
300.168
300.181
300.194
300.208
300.223
300.238
300.254
300.271
300.288
300.306
300.324
300.343
300.363
300.384
300.405
300.427
300.45
300.473
300.497
300.522
300.547
300.573
300.599
300.627
300.655
300.683
300.712
300.742
300.773
300.804
300.835
300.867
300.899
300.932
300.966
301
301.034
301.068
301.103
301.138
301.173
301.208
301.244
301.279
301.314
301.35
301.385
301.42
301.455
301.489
301.523
301.557
301.59
301.623
301.655
301.687
301.718
300.002
300.005
300.008
300.012
300.016
300.02
300.024
300.029
300.034
300.039
300.044
300.05
300.056
300.063
300.07
300.077
300.085
300.094
300.103
300.112
300.122
300.132
300.143
300.154
300.166
300.179
300.192
300.206
300.221
300.236
300.251
300.267
300.284
300.302
300.32
300.339
300.359
300.379
300.4
300.421
300.443
300.466
300.489
300.513
300.538
300.563
300.589
300.616
300.643
300.67
300.699
300.727
300.757
300.787
300.817
300.848
300.879
300.91
300.942
300.974
301.007
301.039
301.072
301.105
301.139
301.172
301.205
301.238
301.271
301.304
301.337
301.37
301.402
301.435
301.466
301.498
301.529
301.559
301.589
301.619
301.648
300.002
300.005
300.008
300.012
300.016
300.02
300.024
300.028
300.033
300.038
300.044
300.05
300.056
300.062
300.069
300.077
300.084
300.093
300.101
300.111
300.12
300.131
300.141
300.153
300.164
300.177
300.19
300.203
300.218
300.232
300.248
300.264
300.28
300.298
300.315
300.334
300.353
300.373
300.393
300.414
300.436
300.458
300.481
300.504
300.528
300.552
300.578
300.603
300.629
300.656
300.683
300.711
300.739
300.768
300.797
300.826
300.856
300.886
300.916
300.947
300.977
301.008
301.039
301.07
301.102
301.133
301.164
301.195
301.226
301.257
301.288
301.318
301.348
301.378
301.408
301.437
301.466
301.494
301.522
301.55
301.577
300.002
300.005
300.008
300.012
300.015
300.019
300.024
300.028
300.033
300.038
300.043
300.049
300.055
300.062
300.068
300.076
300.083
300.091
300.1
300.109
300.119
300.129
300.139
300.151
300.162
300.174
300.187
300.2
300.214
300.229
300.244
300.26
300.276
300.293
300.31
300.328
300.347
300.366
300.386
300.406
300.427
300.449
300.471
300.493
300.516
300.54
300.564
300.589
300.614
300.64
300.666
300.693
300.719
300.747
300.774
300.802
300.831
300.859
300.888
300.917
300.946
300.975
301.004
301.033
301.063
301.092
301.121
301.15
301.179
301.208
301.236
301.265
301.293
301.32
301.348
301.375
301.402
301.428
301.454
301.479
301.504
300.002
300.005
300.008
300.012
300.015
300.019
300.023
300.028
300.032
300.037
300.043
300.048
300.054
300.061
300.067
300.075
300.082
300.09
300.099
300.108
300.117
300.127
300.137
300.148
300.16
300.171
300.184
300.197
300.211
300.225
300.239
300.255
300.271
300.287
300.304
300.321
300.34
300.358
300.377
300.397
300.417
300.438
300.46
300.481
300.504
300.526
300.55
300.573
300.598
300.622
300.647
300.672
300.698
300.724
300.75
300.777
300.803
300.83
300.857
300.884
300.912
300.939
300.966
300.994
301.021
301.048
301.076
301.103
301.13
301.156
301.183
301.209
301.235
301.261
301.286
301.312
301.336
301.361
301.385
301.408
301.431
300.002
300.005
300.008
300.011
300.015
300.019
300.023
300.027
300.032
300.037
300.042
300.048
300.053
300.06
300.066
300.073
300.081
300.089
300.097
300.106
300.115
300.125
300.135
300.145
300.157
300.168
300.18
300.193
300.206
300.22
300.234
300.249
300.265
300.281
300.297
300.314
300.331
300.349
300.368
300.387
300.407
300.427
300.447
300.468
300.489
300.511
300.534
300.556
300.579
300.603
300.626
300.65
300.674
300.699
300.724
300.749
300.774
300.799
300.825
300.85
300.876
300.901
300.927
300.952
300.978
301.003
301.028
301.054
301.079
301.103
301.128
301.152
301.176
301.2
301.224
301.247
301.27
301.292
301.315
301.336
301.358
300.001
300.005
300.008
300.011
300.015
300.019
300.023
300.027
300.031
300.036
300.041
300.047
300.052
300.059
300.065
300.072
300.079
300.087
300.095
300.103
300.112
300.122
300.132
300.142
300.153
300.164
300.176
300.189
300.201
300.215
300.229
300.243
300.258
300.273
300.289
300.306
300.322
300.34
300.358
300.376
300.395
300.414
300.433
300.453
300.474
300.495
300.516
300.537
300.559
300.581
300.604
300.626
300.649
300.672
300.696
300.719
300.743
300.766
300.79
300.814
300.838
300.861
300.885
300.909
300.933
300.956
300.98
301.003
301.026
301.049
301.072
301.094
301.116
301.138
301.16
301.181
301.202
301.223
301.244
301.264
301.284
300.001
300.004
300.008
300.011
300.014
300.018
300.022
300.026
300.031
300.035
300.04
300.046
300.051
300.057
300.064
300.07
300.077
300.085
300.093
300.101
300.11
300.119
300.129
300.139
300.149
300.16
300.172
300.184
300.196
300.209
300.222
300.236
300.25
300.265
300.281
300.296
300.312
300.329
300.346
300.363
300.381
300.4
300.418
300.437
300.457
300.476
300.496
300.517
300.537
300.558
300.579
300.6
300.622
300.644
300.665
300.687
300.709
300.731
300.753
300.776
300.798
300.82
300.842
300.864
300.886
300.907
300.929
300.951
300.972
300.993
301.014
301.035
301.055
301.075
301.095
301.115
301.134
301.154
301.172
301.191
301.209
300.001
300.004
300.007
300.011
300.014
300.018
300.022
300.026
300.03
300.034
300.039
300.045
300.05
300.056
300.062
300.068
300.075
300.083
300.09
300.098
300.107
300.116
300.125
300.135
300.145
300.155
300.167
300.178
300.19
300.202
300.215
300.228
300.242
300.256
300.271
300.286
300.301
300.317
300.333
300.35
300.367
300.384
300.402
300.42
300.438
300.457
300.475
300.495
300.514
300.533
300.553
300.573
300.593
300.613
300.634
300.654
300.674
300.695
300.715
300.736
300.756
300.777
300.797
300.817
300.837
300.857
300.877
300.897
300.917
300.936
300.955
300.974
300.993
301.011
301.03
301.048
301.066
301.083
301.101
301.118
301.134
300.001
300.004
300.007
300.01
300.014
300.017
300.021
300.025
300.029
300.034
300.038
300.043
300.049
300.054
300.06
300.066
300.073
300.08
300.087
300.095
300.103
300.112
300.121
300.13
300.14
300.15
300.161
300.172
300.183
300.195
300.207
300.22
300.233
300.247
300.26
300.275
300.289
300.304
300.319
300.335
300.351
300.367
300.384
300.401
300.418
300.435
300.453
300.471
300.489
300.507
300.526
300.544
300.563
300.581
300.6
300.619
300.638
300.657
300.676
300.694
300.713
300.732
300.751
300.769
300.788
300.806
300.824
300.842
300.86
300.878
300.896
300.913
300.93
300.947
300.964
300.98
300.997
301.013
301.029
301.044
301.059
300.001
300.004
300.007
300.01
300.013
300.017
300.02
300.024
300.028
300.032
300.037
300.042
300.047
300.052
300.058
300.064
300.071
300.077
300.084
300.092
300.1
300.108
300.116
300.125
300.135
300.144
300.154
300.165
300.176
300.187
300.199
300.211
300.223
300.236
300.249
300.262
300.276
300.29
300.305
300.319
300.334
300.35
300.365
300.381
300.397
300.413
300.429
300.446
300.463
300.479
300.496
300.514
300.531
300.548
300.565
300.583
300.6
300.617
300.635
300.652
300.669
300.686
300.703
300.72
300.737
300.754
300.771
300.787
300.803
300.82
300.836
300.851
300.867
300.882
300.898
300.913
300.928
300.942
300.957
300.971
300.985
300.001
300.004
300.007
300.01
300.013
300.016
300.02
300.023
300.027
300.031
300.036
300.04
300.045
300.05
300.056
300.062
300.068
300.074
300.081
300.088
300.096
300.103
300.111
300.12
300.129
300.138
300.148
300.158
300.168
300.178
300.189
300.201
300.212
300.224
300.237
300.249
300.262
300.275
300.289
300.302
300.316
300.33
300.345
300.359
300.374
300.389
300.404
300.42
300.435
300.451
300.466
300.482
300.498
300.513
300.529
300.545
300.561
300.577
300.593
300.608
300.624
300.64
300.655
300.671
300.686
300.701
300.716
300.731
300.746
300.761
300.775
300.79
300.804
300.818
300.832
300.845
300.859
300.872
300.885
300.898
300.91
300.001
300.004
300.006
300.009
300.012
300.015
300.019
300.022
300.026
300.03
300.034
300.039
300.043
300.048
300.053
300.059
300.065
300.071
300.077
300.084
300.091
300.098
300.106
300.114
300.123
300.131
300.14
300.149
300.159
300.169
300.179
300.19
300.201
300.212
300.223
300.235
300.247
300.259
300.272
300.284
300.297
300.31
300.324
300.337
300.351
300.364
300.378
300.392
300.406
300.421
300.435
300.449
300.464
300.478
300.492
300.507
300.521
300.536
300.55
300.564
300.578
300.593
300.607
300.621
300.634
300.648
300.662
300.675
300.689
300.702
300.715
300.728
300.741
300.753
300.766
300.778
300.79
300.802
300.814
300.826
300.837
300.001
300.004
300.006
300.009
300.012
300.015
300.018
300.021
300.025
300.029
300.032
300.037
300.041
300.046
300.051
300.056
300.061
300.067
300.073
300.08
300.086
300.093
300.1
300.108
300.116
300.124
300.132
300.141
300.15
300.159
300.169
300.179
300.189
300.199
300.209
300.22
300.231
300.243
300.254
300.266
300.277
300.289
300.302
300.314
300.326
300.339
300.352
300.364
300.377
300.39
300.403
300.416
300.429
300.442
300.455
300.468
300.481
300.494
300.507
300.52
300.533
300.545
300.558
300.57
300.583
300.595
300.607
300.62
300.632
300.643
300.655
300.667
300.678
300.69
300.701
300.712
300.723
300.733
300.744
300.754
300.765
300.001
300.003
300.006
300.008
300.011
300.014
300.017
300.02
300.023
300.027
300.031
300.035
300.039
300.043
300.048
300.053
300.058
300.063
300.069
300.075
300.081
300.088
300.094
300.101
300.109
300.116
300.124
300.132
300.14
300.149
300.158
300.167
300.176
300.185
300.195
300.205
300.215
300.225
300.236
300.246
300.257
300.268
300.279
300.29
300.301
300.313
300.324
300.336
300.347
300.359
300.371
300.382
300.394
300.406
300.417
300.429
300.441
300.452
300.464
300.475
300.487
300.498
300.509
300.521
300.532
300.543
300.554
300.565
300.575
300.586
300.596
300.607
300.617
300.627
300.637
300.647
300.656
300.666
300.675
300.685
300.694
300.001
300.003
300.006
300.008
300.01
300.013
300.016
300.019
300.022
300.025
300.029
300.033
300.036
300.041
300.045
300.049
300.054
300.059
300.065
300.07
300.076
300.082
300.088
300.094
300.101
300.108
300.115
300.122
300.13
300.138
300.146
300.154
300.163
300.171
300.18
300.189
300.198
300.207
300.217
300.227
300.236
300.246
300.256
300.266
300.276
300.286
300.297
300.307
300.317
300.328
300.338
300.349
300.359
300.369
300.38
300.39
300.401
300.411
300.421
300.431
300.442
300.452
300.462
300.472
300.482
300.491
300.501
300.511
300.52
300.529
300.539
300.548
300.557
300.566
300.575
300.583
300.592
300.6
300.609
300.617
300.625
300.001
300.003
300.005
300.007
300.01
300.012
300.015
300.018
300.021
300.024
300.027
300.03
300.034
300.038
300.042
300.046
300.05
300.055
300.06
300.065
300.07
300.076
300.081
300.087
300.093
300.1
300.106
300.113
300.12
300.127
300.134
300.142
300.149
300.157
300.165
300.173
300.181
300.19
300.198
300.207
300.215
300.224
300.233
300.242
300.251
300.26
300.269
300.278
300.288
300.297
300.306
300.315
300.325
300.334
300.343
300.352
300.361
300.37
300.379
300.388
300.397
300.406
300.415
300.424
300.433
300.441
300.45
300.458
300.467
300.475
300.483
300.491
300.499
300.507
300.515
300.522
300.53
300.537
300.545
300.552
300.559
300.001
300.003
300.005
300.007
300.009
300.011
300.014
300.016
300.019
300.022
300.025
300.028
300.031
300.035
300.039
300.042
300.046
300.051
300.055
300.06
300.064
300.069
300.075
300.08
300.085
300.091
300.097
300.103
300.109
300.116
300.122
300.129
300.136
300.143
300.15
300.157
300.164
300.172
300.179
300.187
300.195
300.202
300.21
300.218
300.226
300.234
300.242
300.25
300.259
300.267
300.275
300.283
300.291
300.299
300.307
300.315
300.323
300.331
300.339
300.347
300.355
300.363
300.37
300.378
300.386
300.393
300.401
300.408
300.415
300.423
300.43
300.437
300.444
300.451
300.457
300.464
300.471
300.477
300.483
300.49
300.496
300.001
300.003
300.004
300.006
300.008
300.01
300.013
300.015
300.017
300.02
300.023
300.026
300.029
300.032
300.035
300.039
300.042
300.046
300.05
300.054
300.059
300.063
300.068
300.073
300.078
300.083
300.088
300.093
300.099
300.105
300.11
300.116
300.122
300.129
300.135
300.141
300.148
300.154
300.161
300.168
300.175
300.181
300.188
300.195
300.202
300.209
300.216
300.223
300.231
300.238
300.245
300.252
300.259
300.266
300.273
300.28
300.287
300.294
300.301
300.308
300.315
300.321
300.328
300.335
300.341
300.348
300.354
300.361
300.367
300.373
300.379
300.386
300.392
300.398
300.403
300.409
300.415
300.421
300.426
300.432
300.437
300.001
300.002
300.004
300.006
300.008
300.01
300.012
300.014
300.016
300.018
300.021
300.023
300.026
300.029
300.032
300.035
300.039
300.042
300.046
300.049
300.053
300.057
300.061
300.066
300.07
300.075
300.079
300.084
300.089
300.094
300.099
300.104
300.11
300.115
300.121
300.126
300.132
300.138
300.144
300.15
300.156
300.162
300.168
300.174
300.18
300.186
300.192
300.198
300.204
300.211
300.217
300.223
300.229
300.235
300.241
300.247
300.253
300.259
300.265
300.271
300.277
300.283
300.289
300.295
300.3
300.306
300.311
300.317
300.322
300.328
300.333
300.338
300.344
300.349
300.354
300.359
300.364
300.369
300.373
300.378
300.383
300.001
300.002
300.004
300.005
300.007
300.009
300.011
300.013
300.015
300.017
300.019
300.021
300.024
300.026
300.029
300.032
300.035
300.038
300.041
300.045
300.048
300.052
300.055
300.059
300.063
300.067
300.071
300.075
300.08
300.084
300.089
300.093
300.098
300.103
300.108
300.113
300.118
300.123
300.128
300.133
300.138
300.143
300.149
300.154
300.159
300.164
300.17
300.175
300.18
300.186
300.191
300.196
300.202
300.207
300.212
300.218
300.223
300.228
300.233
300.238
300.243
300.248
300.253
300.258
300.263
300.268
300.273
300.278
300.282
300.287
300.292
300.296
300.301
300.305
300.309
300.314
300.318
300.322
300.326
300.33
300.334
300.001
300.002
300.003
300.005
300.006
300.008
300.01
300.011
300.013
300.015
300.017
300.019
300.022
300.024
300.026
300.029
300.032
300.034
300.037
300.04
300.043
300.046
300.05
300.053
300.057
300.06
300.064
300.068
300.071
300.075
300.079
300.083
300.088
300.092
300.096
300.1
300.105
300.109
300.114
300.118
300.123
300.127
300.132
300.136
300.141
300.146
300.15
300.155
300.16
300.164
300.169
300.173
300.178
300.183
300.187
300.192
300.196
300.201
300.205
300.21
300.214
300.218
300.223
300.227
300.231
300.235
300.239
300.244
300.248
300.252
300.256
300.259
300.263
300.267
300.271
300.275
300.278
300.282
300.285
300.289
300.292
300.001
300.002
300.003
300.004
300.006
300.007
300.009
300.01
300.012
300.014
300.016
300.018
300.02
300.022
300.024
300.026
300.029
300.031
300.034
300.037
300.039
300.042
300.045
300.048
300.051
300.055
300.058
300.061
300.065
300.068
300.072
300.075
300.079
300.083
300.086
300.09
300.094
300.098
300.102
300.106
300.11
300.114
300.118
300.122
300.126
300.13
300.134
300.138
300.142
300.146
300.15
300.154
300.159
300.163
300.167
300.17
300.174
300.178
300.182
300.186
300.19
300.194
300.198
300.201
300.205
300.209
300.212
300.216
300.219
300.223
300.226
300.23
300.233
300.236
300.24
300.243
300.246
300.249
300.252
300.255
300.258
300.001
300.002
300.003
300.004
300.005
300.007
300.008
300.01
300.011
300.013
300.015
300.016
300.018
300.02
300.022
300.025
300.027
300.029
300.031
300.034
300.036
300.039
300.042
300.045
300.047
300.05
300.053
300.056
300.059
300.063
300.066
300.069
300.072
300.076
300.079
300.083
300.086
300.09
300.093
300.097
300.101
300.104
300.108
300.111
300.115
300.119
300.122
300.126
300.13
300.133
300.137
300.141
300.144
300.148
300.151
300.155
300.159
300.162
300.166
300.169
300.173
300.176
300.179
300.183
300.186
300.189
300.192
300.196
300.199
300.202
300.205
300.208
300.211
300.214
300.217
300.22
300.223
300.226
300.228
300.231
300.234
300.001
300.002
300.003
300.004
300.005
300.007
300.008
300.009
300.011
300.012
300.014
300.016
300.018
300.019
300.021
300.023
300.026
300.028
300.03
300.032
300.035
300.037
300.04
300.042
300.045
300.048
300.051
300.054
300.057
300.06
300.063
300.066
300.069
300.072
300.075
300.079
300.082
300.085
300.089
300.092
300.095
300.099
300.102
300.106
300.109
300.113
300.116
300.119
300.123
300.126
300.13
300.133
300.136
300.14
300.143
300.147
300.15
300.153
300.156
300.16
300.163
300.166
300.169
300.172
300.176
300.179
300.182
300.185
300.188
300.191
300.193
300.196
300.199
300.202
300.205
300.207
300.21
300.213
300.215
300.218
300.22
302.894
303.021
303.097
303.168
303.23
303.28
303.314
303.352
303.391
303.427
303.457
303.49
303.523
303.555
303.588
303.619
303.648
303.674
303.702
303.73
303.757
303.784
303.812
303.839
303.865
303.892
303.917
303.942
303.967
303.992
304.016
304.04
304.063
304.086
304.109
304.131
304.154
304.176
304.197
304.218
304.239
304.259
304.281
304.303
304.325
304.346
304.365
304.385
304.406
304.426
304.445
304.463
304.481
304.501
304.52
304.539
304.559
304.578
304.596
304.614
304.628
304.645
304.661
304.678
304.695
304.712
304.728
304.744
304.76
304.776
304.791
304.806
304.82
304.835
304.849
304.863
304.876
304.89
304.902
304.916
304.931
304.945
304.957
304.969
304.98
304.99
305.001
305.014
305.026
305.035
305.044
305.055
305.066
305.075
305.085
305.095
305.105
305.112
305.122
305.13
305.137
305.144
305.151
305.158
305.165
305.172
305.179
305.184
305.189
305.194
305.199
305.204
305.209
305.214
305.218
305.221
305.224
305.228
305.231
305.233
305.235
305.236
305.238
305.239
305.239
305.24
305.239
305.238
305.237
305.234
305.231
305.228
305.223
305.218
305.212
305.204
305.196
305.187
305.176
305.165
305.152
305.137
305.121
305.104
305.085
305.064
305.04
305.014
304.985
304.952
304.911
304.87
304.829
304.782
304.729
304.669
304.603
304.49
304.386
304.253
304.076
302.794
302.906
302.992
303.066
303.13
303.184
303.229
303.271
303.311
303.349
303.384
303.419
303.453
303.487
303.52
303.552
303.582
303.611
303.639
303.668
303.696
303.724
303.752
303.779
303.806
303.833
303.859
303.885
303.91
303.935
303.959
303.984
304.007
304.031
304.054
304.077
304.099
304.122
304.143
304.165
304.186
304.207
304.229
304.251
304.273
304.293
304.313
304.334
304.355
304.375
304.394
304.413
304.432
304.451
304.47
304.49
304.509
304.528
304.546
304.564
304.58
304.596
304.613
304.63
304.647
304.664
304.68
304.696
304.712
304.728
304.743
304.758
304.773
304.787
304.802
304.816
304.829
304.843
304.856
304.87
304.884
304.898
304.91
304.922
304.933
304.944
304.956
304.968
304.979
304.99
304.999
305.009
305.02
305.03
305.04
305.05
305.059
305.068
305.076
305.085
305.092
305.099
305.106
305.113
305.121
305.128
305.134
305.139
305.145
305.15
305.155
305.16
305.165
305.17
305.174
305.177
305.18
305.184
305.187
305.189
305.191
305.193
305.194
305.195
305.196
305.196
305.195
305.194
305.193
305.19
305.188
305.184
305.179
305.174
305.168
305.161
305.152
305.143
305.133
305.121
305.108
305.094
305.078
305.06
305.041
305.02
304.996
304.97
304.941
304.907
304.867
304.826
304.783
304.736
304.681
304.62
304.549
304.44
304.33
304.191
303.997
302.712
302.81
302.894
302.968
303.033
303.09
303.14
303.186
303.229
303.269
303.307
303.344
303.38
303.415
303.448
303.481
303.513
303.543
303.573
303.602
303.631
303.66
303.688
303.716
303.743
303.771
303.797
303.823
303.849
303.874
303.899
303.924
303.948
303.972
303.996
304.019
304.042
304.064
304.087
304.109
304.13
304.152
304.174
304.196