/*--------------------------------*- C++ -*----------------------------------*\
| =========                 |                                                 |
| \\      /  F ield         | OpenFOAM: The Open Source CFD Toolbox           |
|  \\    /   O peration     | Version:  2106                                  |
|   \\  /    A nd           | Website:  www.openfoam.com                      |
|    \\/     M anipulation  |                                                 |
\*---------------------------------------------------------------------------*/
FoamFile
{
    version     2.0;
    format      ascii;
    arch        "LSB;label=32;scalar=64";
    class       volVectorField;
    location    "2.4";
    object      U;
}
// * * * * * * * * * * * * * * * * * * * * * * * * * * * * * * * * * * * * * //

dimensions      [0 1 -1 0 0 0 0];

internalField   nonuniform List<vector> 
12013
(
(0.100021 -5.89704e-06 0)
(0.100108 -1.08922e-05 0)
(0.100247 -1.54282e-05 0)
(0.100427 -1.94988e-05 0)
(0.100641 -2.32191e-05 0)
(0.100886 -2.66553e-05 0)
(0.101157 -2.98504e-05 0)
(0.101453 -3.28364e-05 0)
(0.101769 -3.56362e-05 0)
(0.102103 -3.82655e-05 0)
(0.102453 -4.07345e-05 0)
(0.102818 -4.30507e-05 0)
(0.103194 -4.52205e-05 0)
(0.10358 -4.72508e-05 0)
(0.103975 -4.91508e-05 0)
(0.104377 -5.09334e-05 0)
(0.104784 -5.26149e-05 0)
(0.105196 -5.42168e-05 0)
(0.105613 -5.57626e-05 0)
(0.106032 -5.72787e-05 0)
(0.106454 -5.87918e-05 0)
(0.106879 -6.03285e-05 0)
(0.107306 -6.1912e-05 0)
(0.107736 -6.3563e-05 0)
(0.10817 -6.52975e-05 0)
(0.108606 -6.71264e-05 0)
(0.109047 -6.90557e-05 0)
(0.109491 -7.10865e-05 0)
(0.109939 -7.32152e-05 0)
(0.110393 -7.54346e-05 0)
(0.11085 -7.7734e-05 0)
(0.111313 -8.00997e-05 0)
(0.11178 -8.2517e-05 0)
(0.112253 -8.4968e-05 0)
(0.112729 -8.74357e-05 0)
(0.11321 -8.99008e-05 0)
(0.113694 -9.23444e-05 0)
(0.114182 -9.47464e-05 0)
(0.114672 -9.7087e-05 0)
(0.115165 -9.9345e-05 0)
(0.115659 -0.000101499 0)
(0.116154 -0.000103528 0)
(0.116648 -0.000105406 0)
(0.117141 -0.000107109 0)
(0.117632 -0.00010861 0)
(0.11812 -0.000109879 0)
(0.118604 -0.000110884 0)
(0.119083 -0.00011159 0)
(0.119555 -0.000111954 0)
(0.120019 -0.000111933 0)
(0.120474 -0.000111474 0)
(0.120917 -0.000110519 0)
(0.121348 -0.000109001 0)
(0.121765 -0.000106842 0)
(0.122165 -0.00010395 0)
(0.122546 -0.00010022 0)
(0.122906 -9.55254e-05 0)
(0.123242 -8.97174e-05 0)
(0.123551 -8.26171e-05 0)
(0.123829 -7.40089e-05 0)
(0.124072 -6.36301e-05 0)
(0.124276 -5.11577e-05 0)
(0.124435 -3.61917e-05 0)
(0.124542 -1.823e-05 0)
(0.124591 3.3658e-06 0)
(0.124571 2.94339e-05 0)
(0.124473 6.10865e-05 0)
(0.12428 9.98e-05 0)
(0.123978 0.000147586 0)
(0.123542 0.000207245 0)
(0.122943 0.000282769 0)
(0.122143 0.000379997 0)
(0.121088 0.000507703 0)
(0.119703 0.00067946 0)
(0.117881 0.000916904 0)
(0.115463 0.00125558 0)
(0.112209 0.00175568 0)
(0.107724 0.0025249 0)
(0.101372 0.00378839 0)
(0.0923306 0.0061888 0)
(0.0820233 0.0126629 0)
(0.10002 -1.80184e-05 0)
(0.100106 -3.34059e-05 0)
(0.100245 -4.73382e-05 0)
(0.100424 -5.9832e-05 0)
(0.100638 -7.12502e-05 0)
(0.100882 -8.17967e-05 0)
(0.101153 -9.1601e-05 0)
(0.101448 -0.000100764 0)
(0.101764 -0.000109354 0)
(0.102098 -0.00011742 0)
(0.102447 -0.000124995 0)
(0.102811 -0.0001321 0)
(0.103187 -0.000138755 0)
(0.103572 -0.000144981 0)
(0.103966 -0.000150807 0)
(0.104367 -0.000156272 0)
(0.104774 -0.000161427 0)
(0.105186 -0.000166336 0)
(0.105601 -0.000171073 0)
(0.106019 -0.000175718 0)
(0.106441 -0.000180353 0)
(0.106864 -0.000185059 0)
(0.107291 -0.000189908 0)
(0.10772 -0.000194964 0)
(0.108152 -0.000200274 0)
(0.108587 -0.000205874 0)
(0.109026 -0.000211781 0)
(0.109469 -0.000217999 0)
(0.109916 -0.000224517 0)
(0.110368 -0.000231312 0)
(0.110824 -0.000238352 0)
(0.111285 -0.000245595 0)
(0.11175 -0.000252994 0)
(0.112221 -0.000260498 0)
(0.112695 -0.000268051 0)
(0.113174 -0.000275596 0)
(0.113656 -0.000283073 0)
(0.114142 -0.000290423 0)
(0.11463 -0.000297583 0)
(0.11512 -0.000304489 0)
(0.115612 -0.000311077 0)
(0.116104 -0.000317277 0)
(0.116596 -0.000323016 0)
(0.117087 -0.000328218 0)
(0.117575 -0.0003328 0)
(0.118061 -0.00033667 0)
(0.118542 -0.00033973 0)
(0.119018 -0.000341871 0)
(0.119487 -0.000342967 0)
(0.119948 -0.000342881 0)
(0.1204 -0.000341455 0)
(0.12084 -0.000338511 0)
(0.121268 -0.000333843 0)
(0.121682 -0.000327213 0)
(0.122079 -0.000318343 0)
(0.122458 -0.000306909 0)
(0.122815 -0.00029253 0)
(0.123149 -0.000274752 0)
(0.123455 -0.000253031 0)
(0.123731 -0.000226713 0)
(0.123973 -0.000195001 0)
(0.124176 -0.000156919 0)
(0.124335 -0.000111257 0)
(0.124444 -5.65011e-05 0)
(0.124495 9.26628e-06 0)
(0.12448 8.85457e-05 0)
(0.124388 0.000184627 0)
(0.124207 0.000301869 0)
(0.12392 0.000446168 0)
(0.123508 0.000625657 0)
(0.122944 0.000851803 0)
(0.122196 0.00114113 0)
(0.12122 0.00151803 0)
(0.119957 0.00201931 0)
(0.11833 0.00270186 0)
(0.116234 0.00365509 0)
(0.113529 0.00502075 0)
(0.110025 0.00702314 0)
(0.105501 0.0100154 0)
(0.09999 0.0144687 0)
(0.0952836 0.0204391 0)
(0.100018 -3.06724e-05 0)
(0.100104 -5.73391e-05 0)
(0.100242 -8.13349e-05 0)
(0.10042 -0.000102846 0)
(0.100632 -0.000122499 0)
(0.100876 -0.000140648 0)
(0.101146 -0.000157516 0)
(0.10144 -0.000173277 0)
(0.101755 -0.000188052 0)
(0.102087 -0.000201923 0)
(0.102436 -0.000214946 0)
(0.102798 -0.00022716 0)
(0.103173 -0.000238597 0)
(0.103557 -0.000249295 0)
(0.10395 -0.000259303 0)
(0.104349 -0.000268687 0)
(0.104755 -0.000277535 0)
(0.105164 -0.000285958 0)
(0.105578 -0.000294081 0)
(0.105995 -0.000302042 0)
(0.106414 -0.000309985 0)
(0.106836 -0.000318046 0)
(0.10726 -0.000326351 0)
(0.107687 -0.000335008 0)
(0.108117 -0.000344101 0)
(0.108549 -0.000353688 0)
(0.108986 -0.000363801 0)
(0.109426 -0.000374446 0)
(0.10987 -0.000385605 0)
(0.110318 -0.000397238 0)
(0.110771 -0.000409289 0)
(0.111229 -0.000421688 0)
(0.111691 -0.000434352 0)
(0.112158 -0.000447194 0)
(0.112629 -0.000460119 0)
(0.113103 -0.000473026 0)
(0.113581 -0.000485814 0)
(0.114063 -0.00049838 0)
(0.114547 -0.000510617 0)
(0.115032 -0.000522416 0)
(0.115519 -0.000533663 0)
(0.116006 -0.000544241 0)
(0.116493 -0.000554025 0)
(0.116978 -0.000562883 0)
(0.117462 -0.000570673 0)
(0.117942 -0.000577238 0)
(0.118417 -0.000582411 0)
(0.118887 -0.000586001 0)
(0.119351 -0.000587798 0)
(0.119806 -0.000587567 0)
(0.120252 -0.000585038 0)
(0.120687 -0.000579908 0)
(0.121109 -0.000571826 0)
(0.121516 -0.000560387 0)
(0.121908 -0.000545123 0)
(0.122281 -0.000525484 0)
(0.122632 -0.000500826 0)
(0.122961 -0.000470383 0)
(0.123263 -0.000433243 0)
(0.123535 -0.000388307 0)
(0.123773 -0.000334247 0)
(0.123974 -0.000269435 0)
(0.124132 -0.000191866 0)
(0.124242 -9.90423e-05 0)
(0.124297 1.21811e-05 0)
(0.124289 0.000145856 0)
(0.124208 0.000307254 0)
(0.124045 0.000503297 0)
(0.123785 0.000743211 0)
(0.123412 0.0010395 0)
(0.122907 0.00140938 0)
(0.122246 0.00187701 0)
(0.121398 0.00247673 0)
(0.12033 0.00325813 0)
(0.119001 0.00429334 0)
(0.117371 0.00568725 0)
(0.11541 0.00758904 0)
(0.113116 0.0101993 0)
(0.110576 0.0137553 0)
(0.108135 0.0183949 0)
(0.106776 0.0234994 0)
(0.100017 -4.37713e-05 0)
(0.100101 -8.26513e-05 0)
(0.100237 -0.000117403 0)
(0.100414 -0.000148574 0)
(0.100625 -0.000177038 0)
(0.100867 -0.000203311 0)
(0.101136 -0.000227724 0)
(0.101428 -0.000250528 0)
(0.101741 -0.000271899 0)
(0.102072 -0.000291958 0)
(0.102419 -0.000310785 0)
(0.10278 -0.000328437 0)
(0.103152 -0.000344963 0)
(0.103534 -0.000360414 0)
(0.103925 -0.000374861 0)
(0.104322 -0.000388401 0)
(0.104725 -0.000401161 0)
(0.105133 -0.000413299 0)
(0.105544 -0.000424998 0)
(0.105958 -0.000436456 0)
(0.106374 -0.00044788 0)
(0.106793 -0.000459469 0)
(0.107214 -0.000471404 0)
(0.107638 -0.000483841 0)
(0.108064 -0.000496902 0)
(0.108493 -0.000510671 0)
(0.108926 -0.000525196 0)
(0.109361 -0.000540483 0)
(0.109801 -0.000556508 0)
(0.110245 -0.000573213 0)
(0.110694 -0.000590517 0)
(0.111146 -0.000608318 0)
(0.111603 -0.000626499 0)
(0.112064 -0.00064493 0)
(0.112529 -0.000663474 0)
(0.112998 -0.000681988 0)
(0.11347 -0.000700324 0)
(0.113945 -0.000718333 0)
(0.114422 -0.000735861 0)
(0.114901 -0.000752748 0)
(0.11538 -0.000768832 0)
(0.11586 -0.000783943 0)
(0.116339 -0.000797901 0)
(0.116817 -0.000810516 0)
(0.117292 -0.000821582 0)
(0.117764 -0.000830876 0)
(0.118232 -0.000838156 0)
(0.118693 -0.000843149 0)
(0.119148 -0.000845555 0)
(0.119595 -0.000845036 0)
(0.120032 -0.00084121 0)
(0.120458 -0.000833642 0)
(0.120871 -0.000821834 0)
(0.12127 -0.000805214 0)
(0.121653 -0.000783116 0)
(0.122018 -0.000754767 0)
(0.122362 -0.000719259 0)
(0.122683 -0.00067552 0)
(0.122978 -0.000622274 0)
(0.123244 -0.000557996 0)
(0.123478 -0.000480844 0)
(0.123676 -0.00038858 0)
(0.123833 -0.000278463 0)
(0.123945 -0.000147101 0)
(0.124006 9.73343e-06 0)
(0.124009 0.000197396 0)
(0.123946 0.000422757 0)
(0.123809 0.000694705 0)
(0.123589 0.00102484 0)
(0.123273 0.00142849 0)
(0.12285 0.00192613 0)
(0.122305 0.00254533 0)
(0.121625 0.0033235 0)
(0.1208 0.00431143 0)
(0.119822 0.00557753 0)
(0.118703 0.00721152 0)
(0.117481 0.00932398 0)
(0.116247 0.0120319 0)
(0.115177 0.0154092 0)
(0.114574 0.0193448 0)
(0.114851 0.0231838 0)
(0.100016 -5.73368e-05 0)
(0.100098 -0.000109322 0)
(0.100233 -0.000155549 0)
(0.100407 -0.000197058 0)
(0.100616 -0.000234944 0)
(0.100856 -0.000269896 0)
(0.101123 -0.00030236 0)
(0.101413 -0.000332674 0)
(0.101724 -0.000361073 0)
(0.102053 -0.000387718 0)
(0.102397 -0.000412718 0)
(0.102755 -0.000436149 0)
(0.103125 -0.000458074 0)
(0.103504 -0.000478565 0)
(0.103892 -0.000497713 0)
(0.104287 -0.000515647 0)
(0.104687 -0.000532535 0)
(0.105091 -0.000548586 0)
(0.105498 -0.000564041 0)
(0.105909 -0.000579167 0)
(0.106322 -0.000594233 0)
(0.106737 -0.000609506 0)
(0.107154 -0.000625226 0)
(0.107573 -0.0006416 0)
(0.107994 -0.000658791 0)
(0.108419 -0.000676912 0)
(0.108846 -0.000696023 0)
(0.109276 -0.000716137 0)
(0.10971 -0.000737219 0)
(0.110148 -0.000759195 0)
(0.11059 -0.000781957 0)
(0.111036 -0.000805368 0)
(0.111486 -0.000829274 0)
(0.11194 -0.000853502 0)
(0.112397 -0.000877869 0)
(0.112858 -0.000902187 0)
(0.113322 -0.00092626 0)
(0.113789 -0.000949886 0)
(0.114257 -0.000972863 0)
(0.114727 -0.00099498 0)
(0.115197 -0.00101602 0)
(0.115667 -0.00103576 0)
(0.116137 -0.00105396 0)
(0.116604 -0.00107037 0)
(0.117069 -0.00108471 0)
(0.11753 -0.0010967 0)
(0.117987 -0.00110602 0)
(0.118437 -0.0011123 0)
(0.118881 -0.00111516 0)
(0.119316 -0.00111415 0)
(0.119742 -0.00110878 0)
(0.120157 -0.00109848 0)
(0.120559 -0.0010826 0)
(0.120947 -0.00106041 0)
(0.121319 -0.00103104 0)
(0.121673 -0.000993516 0)
(0.122007 -0.000946664 0)
(0.122319 -0.000889125 0)
(0.122606 -0.000819287 0)
(0.122865 -0.000735232 0)
(0.123094 -0.000634662 0)
(0.12329 -0.000514805 0)
(0.123447 -0.000372295 0)
(0.123563 -0.000203014 0)
(0.123633 -1.89096e-06 0)
(0.123651 0.000237342 0)
(0.123613 0.000522606 0)
(0.123512 0.000863928 0)
(0.123343 0.00127405 0)
(0.123099 0.00176925 0)
(0.122776 0.00237045 0)
(0.12237 0.00310448 0)
(0.12188 0.00400567 0)
(0.121314 0.00511732 0)
(0.120689 0.0064925 0)
(0.120043 0.00819256 0)
(0.119442 0.0102797 0)
(0.118992 0.0127965 0)
(0.118848 0.0157206 0)
(0.119202 0.0188761 0)
(0.120199 0.0217995 0)
(0.100014 -7.13873e-05 0)
(0.100095 -0.000137332 0)
(0.100227 -0.000195777 0)
(0.100399 -0.000248327 0)
(0.100606 -0.000296276 0)
(0.100843 -0.000340488 0)
(0.101108 -0.000381538 0)
(0.101395 -0.00041985 0)
(0.101703 -0.000455726 0)
(0.102029 -0.000489372 0)
(0.10237 -0.000520927 0)
(0.102725 -0.000550486 0)
(0.103091 -0.000578132 0)
(0.103468 -0.000603953 0)
(0.103852 -0.000628065 0)
(0.104242 -0.00065063 0)
(0.104638 -0.000671859 0)
(0.105039 -0.000692014 0)
(0.105442 -0.000711399 0)
(0.105848 -0.000730347 0)
(0.106256 -0.000749202 0)
(0.106666 -0.000768295 0)
(0.107078 -0.000787933 0)
(0.107492 -0.000808376 0)
(0.107908 -0.000829829 0)
(0.108326 -0.000852436 0)
(0.108747 -0.000876275 0)
(0.109171 -0.000901362 0)
(0.109598 -0.000927653 0)
(0.110028 -0.000955055 0)
(0.110462 -0.000983433 0)
(0.1109 -0.00101262 0)
(0.111342 -0.00104241 0)
(0.111786 -0.00107259 0)
(0.112235 -0.00110293 0)
(0.112686 -0.00113319 0)
(0.11314 -0.00116313 0)
(0.113596 -0.00119249 0)
(0.114053 -0.00122102 0)
(0.114512 -0.00124844 0)
(0.11497 -0.00127449 0)
(0.115429 -0.00129888 0)
(0.115886 -0.00132132 0)
(0.116341 -0.00134149 0)
(0.116793 -0.00135906 0)
(0.117242 -0.00137365 0)
(0.117685 -0.00138486 0)
(0.118122 -0.00139226 0)
(0.118552 -0.00139536 0)
(0.118974 -0.00139362 0)
(0.119386 -0.00138641 0)
(0.119787 -0.00137305 0)
(0.120176 -0.00135276 0)
(0.120551 -0.00132462 0)
(0.12091 -0.00128761 0)
(0.121252 -0.00124052 0)
(0.121575 -0.00118198 0)
(0.121876 -0.00111035 0)
(0.122154 -0.00102374 0)
(0.122406 -0.0009199 0)
(0.12263 -0.000796155 0)
(0.122823 -0.000649325 0)
(0.122983 -0.00047559 0)
(0.123105 -0.000270339 0)
(0.123188 -2.79956e-05 0)
(0.123227 0.000258166 0)
(0.123219 0.000596436 0)
(0.123162 0.000997043 0)
(0.123054 0.00147256 0)
(0.122893 0.00203844 0)
(0.12268 0.00271359 0)
(0.12242 0.00352093 0)
(0.122123 0.00448776 0)
(0.121805 0.00564562 0)
(0.121497 0.00702884 0)
(0.121242 0.00867078 0)
(0.121106 0.0105952 0)
(0.121178 0.0127999 0)
(0.121565 0.0152283 0)
(0.122366 0.0177284 0)
(0.12362 0.0200145 0)
(0.100013 -8.59368e-05 0)
(0.100092 -0.000166666 0)
(0.100222 -0.000238085 0)
(0.100391 -0.000302395 0)
(0.100594 -0.000361074 0)
(0.100829 -0.000415155 0)
(0.10109 -0.000465345 0)
(0.101374 -0.000512167 0)
(0.101678 -0.000555988 0)
(0.102 -0.000597065 0)
(0.102338 -0.000635567 0)
(0.102689 -0.000671615 0)
(0.103052 -0.000705308 0)
(0.103424 -0.000736754 0)
(0.103803 -0.000766095 0)
(0.10419 -0.000793527 0)
(0.104581 -0.000819305 0)
(0.104976 -0.000843747 0)
(0.105375 -0.000867222 0)
(0.105775 -0.000890136 0)
(0.106178 -0.000912905 0)
(0.106582 -0.000935934 0)
(0.106988 -0.000959595 0)
(0.107396 -0.000984206 0)
(0.107805 -0.00101002 0)
(0.108216 -0.00103721 0)
(0.108629 -0.00106588 0)
(0.109045 -0.00109604 0)
(0.109464 -0.00112764 0)
(0.109886 -0.00116057 0)
(0.110311 -0.00119467 0)
(0.110739 -0.00122973 0)
(0.11117 -0.00126551 0)
(0.111604 -0.00130174 0)
(0.112041 -0.00133815 0)
(0.112481 -0.00137443 0)
(0.112923 -0.0014103 0)
(0.113367 -0.00144545 0)
(0.113811 -0.00147955 0)
(0.114257 -0.00151229 0)
(0.114702 -0.00154333 0)
(0.115147 -0.00157234 0)
(0.11559 -0.00159895 0)
(0.11603 -0.00162278 0)
(0.116468 -0.00164343 0)
(0.116901 -0.00166045 0)
(0.117329 -0.00167337 0)
(0.117751 -0.00168166 0)
(0.118165 -0.00168474 0)
(0.118571 -0.00168197 0)
(0.118968 -0.00167263 0)
(0.119353 -0.00165589 0)
(0.119727 -0.00163085 0)
(0.120087 -0.00159646 0)
(0.120432 -0.00155151 0)
(0.12076 -0.00149465 0)
(0.12107 -0.00142428 0)
(0.121361 -0.00133858 0)
(0.121629 -0.00123542 0)
(0.121874 -0.00111231 0)
(0.122094 -0.000966326 0)
(0.122286 -0.000794035 0)
(0.122449 -0.000591373 0)
(0.122581 -0.000353528 0)
(0.122679 -7.4801e-05 0)
(0.122743 0.000251505 0)
(0.122771 0.000633359 0)
(0.122764 0.00108031 0)
(0.122721 0.00160363 0)
(0.122647 0.00221655 0)
(0.122547 0.00293435 0)
(0.12243 0.00377432 0)
(0.122311 0.00475533 0)
(0.122211 0.00589677 0)
(0.12216 0.00721641 0)
(0.122201 0.00872647 0)
(0.122385 0.010427 0)
(0.122774 0.0122958 0)
(0.123432 0.0142745 0)
(0.124404 0.0162535 0)
(0.12569 0.0180672 0)
(0.100011 -0.000101003 0)
(0.100089 -0.000197316 0)
(0.100216 -0.000282474 0)
(0.100381 -0.00035927 0)
(0.100582 -0.000429363 0)
(0.100813 -0.000493941 0)
(0.10107 -0.00055385 0)
(0.10135 -0.000609708 0)
(0.10165 -0.00066196 0)
(0.101968 -0.000710909 0)
(0.102301 -0.000756764 0)
(0.102648 -0.000799667 0)
(0.103006 -0.00083974 0)
(0.103373 -0.00087711 0)
(0.103747 -0.000911946 0)
(0.104129 -0.000944478 0)
(0.104514 -0.000975009 0)
(0.104904 -0.00100391 0)
(0.105297 -0.00103163 0)
(0.105691 -0.00105863 0)
(0.106087 -0.00108542 0)
(0.106485 -0.00111247 0)
(0.106884 -0.00114023 0)
(0.107284 -0.00116908 0)
(0.107685 -0.00119931 0)
(0.108088 -0.00123114 0)
(0.108493 -0.00126468 0)
(0.1089 -0.00129996 0)
(0.109309 -0.00133693 0)
(0.109721 -0.00137544 0)
(0.110135 -0.00141531 0)
(0.110552 -0.00145628 0)
(0.110972 -0.00149808 0)
(0.111394 -0.00154039 0)
(0.111819 -0.00158288 0)
(0.112245 -0.0016252 0)
(0.112674 -0.00166699 0)
(0.113103 -0.00170789 0)
(0.113534 -0.00174753 0)
(0.113964 -0.00178551 0)
(0.114394 -0.00182146 0)
(0.114823 -0.00185497 0)
(0.11525 -0.0018856 0)
(0.115674 -0.00191293 0)
(0.116094 -0.00193646 0)
(0.11651 -0.00195569 0)
(0.116921 -0.00197006 0)
(0.117326 -0.00197896 0)
(0.117723 -0.00198174 0)
(0.118111 -0.00197764 0)
(0.118491 -0.00196586 0)
(0.118859 -0.00194545 0)
(0.119216 -0.00191541 0)
(0.11956 -0.00187454 0)
(0.119889 -0.00182153 0)
(0.120203 -0.00175487 0)
(0.120501 -0.00167283 0)
(0.120779 -0.00157344 0)
(0.121039 -0.00145443 0)
(0.121277 -0.00131318 0)
(0.121493 -0.00114666 0)
(0.121686 -0.000951366 0)
(0.121854 -0.000723225 0)
(0.121997 -0.000457526 0)
(0.122114 -0.000148828 0)
(0.122206 0.000209072 0)
(0.122273 0.000623244 0)
(0.122317 0.00110185 0)
(0.122342 0.00165412 0)
(0.122353 0.00229024 0)
(0.122358 0.00302121 0)
(0.12237 0.00385841 0)
(0.122403 0.0048128 0)
(0.122478 0.00589373 0)
(0.122623 0.00710689 0)
(0.122869 0.00845145 0)
(0.123253 0.00991601 0)
(0.123815 0.0114735 0)
(0.124587 0.0130758 0)
(0.125587 0.0146505 0)
(0.126803 0.0161038 0)
(0.10001 -0.000116604 0)
(0.100086 -0.000229275 0)
(0.10021 -0.000328941 0)
(0.100372 -0.000418953 0)
(0.100568 -0.000501153 0)
(0.100795 -0.000576873 0)
(0.101048 -0.000647091 0)
(0.101323 -0.00071253 0)
(0.101619 -0.000773708 0)
(0.101932 -0.000830985 0)
(0.10226 -0.000884605 0)
(0.102601 -0.000934739 0)
(0.102954 -0.000981528 0)
(0.103315 -0.00102512 0)
(0.103684 -0.00106572 0)
(0.104059 -0.00110358 0)
(0.104439 -0.00113906 0)
(0.104822 -0.00117259 0)
(0.105208 -0.00120468 0)
(0.105595 -0.00123589 0)
(0.105984 -0.00126677 0)
(0.106374 -0.00129791 0)
(0.106765 -0.00132981 0)
(0.107157 -0.00136292 0)
(0.10755 -0.00139758 0)
(0.107943 -0.00143405 0)
(0.108339 -0.00147247 0)
(0.108735 -0.00151286 0)
(0.109134 -0.00155517 0)
(0.109534 -0.00159924 0)
(0.109937 -0.00164485 0)
(0.110341 -0.00169172 0)
(0.110748 -0.0017395 0)
(0.111157 -0.00178784 0)
(0.111567 -0.00183636 0)
(0.111979 -0.00188464 0)
(0.112393 -0.00193226 0)
(0.112806 -0.00197882 0)
(0.113221 -0.00202386 0)
(0.113635 -0.00206695 0)
(0.114047 -0.00210763 0)
(0.114459 -0.00214544 0)
(0.114868 -0.00217989 0)
(0.115274 -0.00221046 0)
(0.115676 -0.00223662 0)
(0.116073 -0.00225777 0)
(0.116465 -0.0022733 0)
(0.116851 -0.00228252 0)
(0.117229 -0.00228468 0)
(0.117599 -0.00227896 0)
(0.117959 -0.00226446 0)
(0.11831 -0.00224016 0)
(0.118649 -0.00220493 0)
(0.118975 -0.00215752 0)
(0.119289 -0.00209651 0)
(0.119588 -0.0020203 0)
(0.119872 -0.00192708 0)
(0.120139 -0.00181482 0)
(0.120389 -0.0016812 0)
(0.120622 -0.00152359 0)
(0.120835 -0.001339 0)
(0.12103 -0.00112406 0)
(0.121205 -0.000874931 0)
(0.121361 -0.000587269 0)
(0.121498 -0.000256221 0)
(0.121619 0.000123586 0)
(0.121725 0.000557905 0)
(0.121819 0.0010531 0)
(0.121907 0.00161597 0)
(0.121996 0.00225352 0)
(0.122094 0.00297261 0)
(0.122212 0.0037794 0)
(0.122367 0.00467864 0)
(0.122574 0.00567255 0)
(0.122854 0.00675947 0)
(0.123231 0.00793206 0)
(0.123728 0.00917532 0)
(0.124367 0.0104646 0)
(0.125164 0.0117644 0)
(0.126122 0.0130284 0)
(0.127228 0.0142041 0)
(0.100008 -0.00013276 0)
(0.100083 -0.000262535 0)
(0.100203 -0.000377476 0)
(0.100362 -0.000481433 0)
(0.100554 -0.000576437 0)
(0.100776 -0.00066395 0)
(0.101024 -0.000745079 0)
(0.101294 -0.000820651 0)
(0.101584 -0.000891262 0)
(0.101892 -0.000957328 0)
(0.102214 -0.00101913 0)
(0.102549 -0.00107688 0)
(0.102895 -0.00113072 0)
(0.10325 -0.00118084 0)
(0.103613 -0.00122746 0)
(0.103981 -0.00127088 0)
(0.104353 -0.0013115 0)
(0.104729 -0.00134981 0)
(0.105108 -0.00138639 0)
(0.105488 -0.00142188 0)
(0.105869 -0.00145693 0)
(0.10625 -0.00149217 0)
(0.106632 -0.00152822 0)
(0.107015 -0.00156557 0)
(0.107398 -0.00160463 0)
(0.107781 -0.00164569 0)
(0.108166 -0.00168891 0)
(0.108551 -0.00173435 0)
(0.108938 -0.00178192 0)
(0.109326 -0.00183146 0)
(0.109715 -0.00188271 0)
(0.110106 -0.00193535 0)
(0.110499 -0.001989 0)
(0.110893 -0.00204325 0)
(0.111288 -0.00209764 0)
(0.111684 -0.00215173 0)
(0.11208 -0.00220502 0)
(0.112477 -0.00225703 0)
(0.112874 -0.00230727 0)
(0.11327 -0.00235524 0)
(0.113664 -0.00240041 0)
(0.114056 -0.00244226 0)
(0.114446 -0.00248023 0)
(0.114832 -0.00251375 0)
(0.115215 -0.00254221 0)
(0.115592 -0.00256497 0)
(0.115964 -0.00258133 0)
(0.116329 -0.00259054 0)
(0.116687 -0.00259178 0)
(0.117037 -0.00258418 0)
(0.117377 -0.00256674 0)
(0.117709 -0.0025384 0)
(0.118029 -0.00249797 0)
(0.118338 -0.00244413 0)
(0.118635 -0.00237541 0)
(0.118919 -0.0022902 0)
(0.119189 -0.00218667 0)
(0.119446 -0.0020628 0)
(0.119687 -0.00191633 0)
(0.119914 -0.00174476 0)
(0.120126 -0.0015453 0)
(0.120323 -0.00131485 0)
(0.120505 -0.00105002 0)
(0.120675 -0.000747059 0)
(0.120833 -0.000401943 0)
(0.120981 -1.03434e-05 0)
(0.121124 0.000432051 0)
(0.121264 0.000929623 0)
(0.121408 0.0014868 0)
(0.121562 0.00210767 0)
(0.121735 0.00279562 0)
(0.121938 0.00355288 0)
(0.122181 0.00437987 0)
(0.122479 0.00527458 0)
(0.122846 0.00623163 0)
(0.123296 0.00724154 0)
(0.123844 0.00828989 0)
(0.124501 0.00935688 0)
(0.125273 0.0104176 0)
(0.126159 0.0114431 0)
(0.127146 0.0124038 0)
(0.100007 -0.000149483 0)
(0.10008 -0.000297086 0)
(0.100197 -0.00042806 0)
(0.100351 -0.000546683 0)
(0.100539 -0.000655184 0)
(0.100756 -0.000755142 0)
(0.100998 -0.000847787 0)
(0.101263 -0.000934048 0)
(0.101547 -0.0010146 0)
(0.101848 -0.00108992 0)
(0.102164 -0.00116033 0)
(0.102492 -0.00122606 0)
(0.102831 -0.0012873 0)
(0.103179 -0.00134424 0)
(0.103534 -0.00139714 0)
(0.103894 -0.00144634 0)
(0.104259 -0.00149227 0)
(0.104627 -0.00153551 0)
(0.104997 -0.00157668 0)
(0.105368 -0.00161652 0)
(0.10574 -0.00165575 0)
(0.106112 -0.0016951 0)
(0.106484 -0.00173525 0)
(0.106857 -0.00177677 0)
(0.107229 -0.00182014 0)
(0.107601 -0.00186568 0)
(0.107974 -0.00191359 0)
(0.108347 -0.00196392 0)
(0.108721 -0.00201659 0)
(0.109095 -0.00207142 0)
(0.10947 -0.00212813 0)
(0.109847 -0.00218636 0)
(0.110224 -0.00224567 0)
(0.110601 -0.0023056 0)
(0.11098 -0.00236565 0)
(0.111359 -0.00242529 0)
(0.111737 -0.00248398 0)
(0.112116 -0.00254118 0)
(0.112493 -0.00259633 0)
(0.11287 -0.00264886 0)
(0.113244 -0.00269819 0)
(0.113616 -0.00274374 0)
(0.113985 -0.00278488 0)
(0.114351 -0.00282099 0)
(0.114712 -0.0028514 0)
(0.115068 -0.0028754 0)
(0.115418 -0.00289225 0)
(0.115762 -0.00290113 0)
(0.116099 -0.00290119 0)
(0.116428 -0.00289148 0)
(0.116748 -0.00287099 0)
(0.11706 -0.00283859 0)
(0.117361 -0.00279309 0)
(0.117652 -0.00273314 0)
(0.117932 -0.00265729 0)
(0.118201 -0.00256394 0)
(0.118458 -0.00245134 0)
(0.118704 -0.00231756 0)
(0.118937 -0.00216051 0)
(0.119159 -0.00197792 0)
(0.119369 -0.00176731 0)
(0.119568 -0.00152603 0)
(0.119759 -0.00125124 0)
(0.119941 -0.000939957 0)
(0.120117 -0.000589094 0)
(0.120291 -0.0001955 0)
(0.120466 0.000243859 0)
(0.120645 0.000731482 0)
(0.120834 0.00126969 0)
(0.12104 0.00186022 0)
(0.12127 0.00250391 0)
(0.121532 0.00320033 0)
(0.121835 0.00394738 0)
(0.122188 0.00474094 0)
(0.122602 0.00557444 0)
(0.123084 0.00643861 0)
(0.123643 0.00732129 0)
(0.124283 0.00820763 0)
(0.125006 0.00908064 0)
(0.125807 0.00992235 0)
(0.126679 0.0107158 0)
(0.100005 -0.000166777 0)
(0.100077 -0.000332904 0)
(0.10019 -0.000480655 0)
(0.10034 -0.000614654 0)
(0.100523 -0.000737332 0)
(0.100734 -0.000850381 0)
(0.10097 -0.00095514 0)
(0.101229 -0.00105264 0)
(0.101506 -0.00114364 0)
(0.1018 -0.00122867 0)
(0.102109 -0.00130811 0)
(0.102429 -0.0013822 0)
(0.10276 -0.00145116 0)
(0.1031 -0.00151522 0)
(0.103446 -0.00157465 0)
(0.103798 -0.00162983 0)
(0.104154 -0.00168124 0)
(0.104513 -0.00172952 0)
(0.104873 -0.00177537 0)
(0.105235 -0.00181958 0)
(0.105597 -0.00186299 0)
(0.105959 -0.00190641 0)
(0.106321 -0.00195058 0)
(0.106682 -0.00199617 0)
(0.107043 -0.00204369 0)
(0.107403 -0.00209353 0)
(0.107763 -0.00214592 0)
(0.108122 -0.00220092 0)
(0.108482 -0.00225846 0)
(0.108842 -0.00231833 0)
(0.109202 -0.00238023 0)
(0.109562 -0.00244375 0)
(0.109922 -0.00250842 0)
(0.110283 -0.00257372 0)
(0.110644 -0.00263909 0)
(0.111004 -0.00270395 0)
(0.111363 -0.0027677 0)
(0.111722 -0.00282972 0)
(0.11208 -0.00288939 0)
(0.112435 -0.00294609 0)
(0.112789 -0.00299919 0)
(0.113139 -0.00304802 0)
(0.113487 -0.00309193 0)
(0.11383 -0.00313022 0)
(0.114169 -0.00316218 0)
(0.114503 -0.00318705 0)
(0.114831 -0.00320405 0)
(0.115152 -0.00321231 0)
(0.115467 -0.00321096 0)
(0.115775 -0.00319901 0)
(0.116074 -0.00317544 0)
(0.116366 -0.00313913 0)
(0.116648 -0.00308887 0)
(0.116921 -0.00302336 0)
(0.117184 -0.00294121 0)
(0.117438 -0.0028409 0)
(0.117682 -0.00272082 0)
(0.117917 -0.00257922 0)
(0.118142 -0.00241425 0)
(0.118358 -0.00222395 0)
(0.118567 -0.00200626 0)
(0.118768 -0.00175905 0)
(0.118965 -0.00148014 0)
(0.119158 -0.00116733 0)
(0.11935 -0.000818491 0)
(0.119544 -0.000431606 0)
(0.119744 -4.82424e-06 0)
(0.119953 0.000463017 0)
(0.120176 0.000972453 0)
(0.120419 0.00152352 0)
(0.120687 0.00211539 0)
(0.120987 0.0027461 0)
(0.121324 0.00341237 0)
(0.121705 0.00410942 0)
(0.122136 0.00483088 0)
(0.122621 0.00556875 0)
(0.123165 0.00631349 0)
(0.123768 0.00705437 0)
(0.124431 0.00777999 0)
(0.125148 0.00847911 0)
(0.125913 0.00914191 0)
(0.100003 -0.000184639 0)
(0.100073 -0.000369953 0)
(0.100184 -0.000535199 0)
(0.100329 -0.000685263 0)
(0.100506 -0.000822781 0)
(0.100711 -0.000949548 0)
(0.100941 -0.00106701 0)
(0.101192 -0.00117629 0)
(0.101462 -0.00127823 0)
(0.101748 -0.00137343 0)
(0.102048 -0.00146228 0)
(0.102361 -0.0015451 0)
(0.102683 -0.0016221 0)
(0.103013 -0.00169355 0)
(0.103351 -0.00175974 0)
(0.103693 -0.00182109 0)
(0.104039 -0.00187813 0)
(0.104388 -0.00193155 0)
(0.104738 -0.00198212 0)
(0.105089 -0.00203072 0)
(0.10544 -0.00207827 0)
(0.105791 -0.00212566 0)
(0.106141 -0.00217372 0)
(0.10649 -0.0022232 0)
(0.106837 -0.00227467 0)
(0.107184 -0.00232857 0)
(0.107531 -0.00238517 0)
(0.107876 -0.00244454 0)
(0.10822 -0.00250661 0)
(0.108565 -0.00257117 0)
(0.108908 -0.00263789 0)
(0.109251 -0.00270633 0)
(0.109594 -0.00277596 0)
(0.109936 -0.00284622 0)
(0.110278 -0.0029165 0)
(0.110618 -0.00298614 0)
(0.110958 -0.00305449 0)
(0.111296 -0.00312087 0)
(0.111632 -0.0031846 0)
(0.111966 -0.00324501 0)
(0.112297 -0.00330139 0)
(0.112625 -0.00335305 0)
(0.11295 -0.00339926 0)
(0.11327 -0.00343929 0)
(0.113586 -0.00347238 0)
(0.113897 -0.00349775 0)
(0.114202 -0.00351457 0)
(0.114501 -0.00352197 0)
(0.114794 -0.00351904 0)
(0.115079 -0.00350482 0)
(0.115357 -0.00347828 0)
(0.115628 -0.00343833 0)
(0.115891 -0.00338383 0)
(0.116146 -0.00331354 0)
(0.116392 -0.00322617 0)
(0.116631 -0.00312035 0)
(0.116862 -0.00299466 0)
(0.117086 -0.00284759 0)
(0.117303 -0.0026776 0)
(0.117514 -0.0024831 0)
(0.11772 -0.00226248 0)
(0.117922 -0.00201418 0)
(0.118123 -0.00173666 0)
(0.118323 -0.00142849 0)
(0.118527 -0.00108843 0)
(0.118735 -0.000715433 0)
(0.118953 -0.000308714 0)
(0.119182 0.000132175 0)
(0.119428 0.000606474 0)
(0.119693 0.00111304 0)
(0.119983 0.0016501 0)
(0.120301 0.00221501 0)
(0.120652 0.00280418 0)
(0.121039 0.00341303 0)
(0.121467 0.004036 0)
(0.121936 0.00466665 0)
(0.122449 0.00529782 0)
(0.123005 0.00592192 0)
(0.123603 0.00653133 0)
(0.124239 0.00711895 0)
(0.124908 0.00767906 0)
(0.100001 -0.00020305 0)
(0.10007 -0.000408178 0)
(0.100176 -0.000591599 0)
(0.100316 -0.000758389 0)
(0.100488 -0.000911379 0)
(0.100686 -0.00105247 0)
(0.100909 -0.00118319 0)
(0.101152 -0.00130477 0)
(0.101414 -0.00141813 0)
(0.101692 -0.00152391 0)
(0.101983 -0.00162257 0)
(0.102286 -0.00171444 0)
(0.102598 -0.00179979 0)
(0.102919 -0.00187888 0)
(0.103246 -0.00195204 0)
(0.103577 -0.00201972 0)
(0.103913 -0.00208251 0)
(0.10425 -0.00214113 0)
(0.104589 -0.00219644 0)
(0.104928 -0.0022494 0)
(0.105267 -0.002301 0)
(0.105606 -0.00235222 0)
(0.105943 -0.002404 0)
(0.106278 -0.00245712 0)
(0.106612 -0.00251227 0)
(0.106945 -0.00256992 0)
(0.107276 -0.00263036 0)
(0.107606 -0.00269371 0)
(0.107935 -0.00275991 0)
(0.108262 -0.00282873 0)
(0.108588 -0.00289981 0)
(0.108913 -0.00297268 0)
(0.109237 -0.00304678 0)
(0.109559 -0.00312149 0)
(0.109881 -0.00319614 0)
(0.110201 -0.00327003 0)
(0.110519 -0.00334245 0)
(0.110835 -0.00341264 0)
(0.111149 -0.0034799 0)
(0.11146 -0.00354346 0)
(0.111769 -0.00360259 0)
(0.112073 -0.00365655 0)
(0.112375 -0.00370456 0)
(0.112671 -0.00374587 0)
(0.112963 -0.00377967 0)
(0.113251 -0.00380517 0)
(0.113532 -0.00382152 0)
(0.113808 -0.00382786 0)
(0.114078 -0.00382328 0)
(0.114341 -0.00380685 0)
(0.114598 -0.00377758 0)
(0.114848 -0.00373444 0)
(0.115092 -0.00367637 0)
(0.115328 -0.00360226 0)
(0.115558 -0.00351095 0)
(0.115782 -0.00340128 0)
(0.115999 -0.00327203 0)
(0.116212 -0.00312199 0)
(0.11642 -0.00294994 0)
(0.116624 -0.0027547 0)
(0.116826 -0.00253513 0)
(0.117027 -0.00229017 0)
(0.117229 -0.00201891 0)
(0.117433 -0.0017206 0)
(0.117643 -0.00139469 0)
(0.11786 -0.00104093 0)
(0.118087 -0.000659371 0)
(0.118327 -0.00025035 0)
(0.118583 0.000185422 0)
(0.118858 0.000645798 0)
(0.119155 0.0011285 0)
(0.119477 0.00163075 0)
(0.119826 0.00214915 0)
(0.120204 0.00267971 0)
(0.120613 0.00321787 0)
(0.121055 0.00375866 0)
(0.121528 0.00429684 0)
(0.122032 0.0048271 0)
(0.122566 0.00534434 0)
(0.123126 0.00584404 0)
(0.123709 0.00632283 0)
(0.0999986 -0.00022198 0)
(0.100066 -0.000447499 0)
(0.100169 -0.000649725 0)
(0.100304 -0.000833857 0)
(0.100468 -0.00100291 0)
(0.10066 -0.00115888 0)
(0.100875 -0.00130339 0)
(0.10111 -0.00143775 0)
(0.101363 -0.00156296 0)
(0.101631 -0.00167973 0)
(0.101912 -0.00178855 0)
(0.102205 -0.00188978 0)
(0.102506 -0.00198373 0)
(0.102816 -0.00207068 0)
(0.103131 -0.00215098 0)
(0.103451 -0.00222512 0)
(0.103774 -0.00229373 0)
(0.1041 -0.00235758 0)
(0.104426 -0.00241761 0)
(0.104752 -0.00247485 0)
(0.105078 -0.00253036 0)
(0.105403 -0.00258523 0)
(0.105726 -0.00264046 0)
(0.106047 -0.00269695 0)
(0.106366 -0.00275542 0)
(0.106683 -0.00281642 0)
(0.106998 -0.00288028 0)
(0.107311 -0.00294714 0)
(0.107622 -0.00301696 0)