/*--------------------------------*- C++ -*----------------------------------*\
| =========                 |                                                 |
| \\      /  F ield         | OpenFOAM: The Open Source CFD Toolbox           |
|  \\    /   O peration     | Version:  2106                                  |
|   \\  /    A nd           | Website:  www.openfoam.com                      |
|    \\/     M anipulation  |                                                 |
\*---------------------------------------------------------------------------*/
FoamFile
{
    version     2.0;
    format      ascii;
    arch        "LSB;label=32;scalar=64";
    class       surfaceScalarField;
    location    "6.6";
    object      phi;
}
// * * * * * * * * * * * * * * * * * * * * * * * * * * * * * * * * * * * * * //

dimensions      [1 0 -1 0 0 0 0];

oriented        oriented;

internalField   nonuniform List<scalar> 
23692
(
9.31813e-05
-1.01874e-07
9.33656e-05
-1.84295e-07
9.36233e-05
-2.57659e-07
9.39456e-05
-3.22242e-07
9.43257e-05
-3.80077e-07
9.47582e-05
-4.32406e-07
9.52383e-05
-4.80054e-07
9.5762e-05
-5.23675e-07
9.63259e-05
-5.63785e-07
9.69268e-05
-6.00786e-07
9.75619e-05
-6.35009e-07
9.82287e-05
-6.66724e-07
9.8925e-05
-6.96162e-07
9.96486e-05
-7.23511e-07
0.000100398
-7.48935e-07
0.00010117
-7.72568e-07
0.000101965
-7.94528e-07
0.00010278
-8.14916e-07
0.000103614
-8.33819e-07
0.000104466
-8.51308e-07
0.000105333
-8.67453e-07
0.000106216
-8.82305e-07
0.000107112
-8.95913e-07
0.00010802
-9.08321e-07
0.00010894
-9.19564e-07
0.00010987
-9.29674e-07
0.000110809
-9.38678e-07
0.000111755
-9.46599e-07
0.000112709
-9.53458e-07
0.000113668
-9.59271e-07
0.000114633
-9.64053e-07
0.0001156
-9.67814e-07
0.000116571
-9.70566e-07
0.000117544
-9.72309e-07
0.000118517
-9.73052e-07
0.00011949
-9.72794e-07
0.000120461
-9.71534e-07
0.000121431
-9.69266e-07
0.000122397
-9.65983e-07
0.000123359
-9.61675e-07
0.000124315
-9.56325e-07
0.000125265
-9.49917e-07
0.000126208
-9.42426e-07
0.000127142
-9.33824e-07
0.000128066
-9.24077e-07
0.000128979
-9.13145e-07
0.00012988
-9.00976e-07
0.000130768
-8.87516e-07
0.000131641
-8.72696e-07
0.000132497
-8.56437e-07
0.000133336
-8.38642e-07
0.000134155
-8.19203e-07
0.000134953
-7.97987e-07
0.000135728
-7.7484e-07
0.000136478
-7.49575e-07
0.0001372
-7.21976e-07
0.000137892
-6.91779e-07
0.00013855
-6.58666e-07
0.000139173
-6.22258e-07
0.000139755
-5.82087e-07
0.000140292
-5.37583e-07
0.00014078
-4.88039e-07
0.000141213
-4.32576e-07
0.000141583
-3.70081e-07
0.000141882
-2.99138e-07
0.0001421
-2.1792e-07
0.000142224
-1.24034e-07
0.000142239
-1.43257e-08
0.000142123
1.1558e-07
0.000141851
2.71705e-07
0.000141389
4.6267e-07
0.000140688
7.00986e-07
0.000139682
1.00537e-06
0.000138278
1.40463e-06
0.000136333
1.94447e-06
0.000133634
2.69942e-06
0.00012984
3.79409e-06
0.000124397
5.44274e-06
0.000116356
8.04134e-06
0.00010395
1.24052e-05
2.08832e-05
8.30671e-05
9.97053e-05
-2.08178e-07
9.99014e-05
-3.8038e-07
0.000100176
-5.32479e-07
0.00010052
-6.66129e-07
0.000100926
-7.8586e-07
0.000101388
-8.94178e-07
0.000101901
-9.92796e-07
0.00010246
-1.08308e-06
0.000103063
-1.16608e-06
0.000103704
-1.24265e-06
0.000104383
-1.31346e-06
0.000105095
-1.37908e-06
0.000105839
-1.43998e-06
0.000106613
-1.49656e-06
0.000107413
-1.54914e-06
0.000108239
-1.59803e-06
0.000109088
-1.64344e-06
0.000109958
-1.68561e-06
0.000110849
-1.72469e-06
0.000111759
-1.76085e-06
0.000112686
-1.79423e-06
0.000113629
-1.82492e-06
0.000114586
-1.85305e-06
0.000115557
-1.87868e-06
0.000116539
-1.90191e-06
0.000117532
-1.92279e-06
0.000118535
-1.94137e-06
0.000119547
-1.95772e-06
0.000120565
-1.97187e-06
0.00012159
-1.98385e-06
0.00012262
-1.9937e-06
0.000123654
-2.00143e-06
0.00012469
-2.00707e-06
0.000125729
-2.01063e-06
0.000126768
-2.01211e-06
0.000127807
-2.01153e-06
0.000128844
-2.00886e-06
0.000129879
-2.00412e-06
0.000130911
-1.99727e-06
0.000131937
-1.9883e-06
0.000132958
-1.97718e-06
0.000133972
-1.96386e-06
0.000134978
-1.94831e-06
0.000135975
-1.93047e-06
0.000136962
-1.91025e-06
0.000137936
-1.88759e-06
0.000138898
-1.86237e-06
0.000139845
-1.83449e-06
0.000140776
-1.8038e-06
0.00014169
-1.77014e-06
0.000142584
-1.73332e-06
0.000143458
-1.69312e-06
0.00014431
-1.64925e-06
0.000145136
-1.60141e-06
0.000145936
-1.54923e-06
0.000146706
-1.49225e-06
0.000147445
-1.42995e-06
0.000148148
-1.36168e-06
0.000148812
-1.28667e-06
0.000149434
-1.20398e-06
0.000150009
-1.11247e-06
0.000150532
-1.01072e-06
0.000150996
-8.96968e-07
0.000151395
-7.69011e-07
0.00015172
-6.24045e-07
0.000151961
-4.58475e-07
0.000152104
-2.67632e-07
0.000152135
-4.53751e-08
0.000152034
2.16553e-07
0.000151777
5.29504e-07
0.00015133
9.0934e-07
0.000150652
1.3786e-06
0.000149688
1.96998e-06
0.00014836
2.73194e-06
0.000146567
3.73761e-06
0.000144168
5.09881e-06
0.000140975
6.98646e-06
0.00013676
9.65789e-06
0.000131308
1.34936e-05
0.00012475
1.89628e-05
2.58949e-05
0.000119739
0.000106685
-3.1826e-07
0.000106893
-5.87993e-07
0.000107185
-8.2424e-07
0.00010755
-1.03196e-06
0.000107983
-1.21797e-06
0.000108475
-1.3862e-06
0.000109021
-1.53933e-06
0.000109618
-1.67951e-06
0.00011026
-1.80836e-06
0.000110945
-1.9272e-06
0.000111669
-2.0371e-06
0.000112429
-2.13893e-06
0.000113222
-2.23343e-06
0.000114047
-2.32121e-06
0.000114901
-2.40278e-06
0.000115782
-2.4786e-06
0.000116687
-2.54903e-06
0.000117616
-2.6144e-06
0.000118567
-2.67499e-06
0.000119537
-2.73104e-06
0.000120526
-2.78275e-06
0.000121531
-2.83031e-06
0.000122552
-2.87386e-06
0.000123587
-2.91355e-06
0.000124635
-2.94949e-06
0.000125694
-2.98179e-06
0.000126764
-3.01052e-06
0.000127842
-3.03577e-06
0.000128928
-3.05761e-06
0.00013002
-3.07608e-06
0.000131118
-3.09123e-06
0.00013222
-3.1031e-06
0.000133324
-3.11172e-06
0.000134431
-3.1171e-06
0.000135538
-3.11927e-06
0.000136645
-3.11821e-06
0.000137751
-3.11394e-06
0.000138853
-3.10643e-06
0.000139952
-3.09565e-06
0.000141045
-3.08159e-06
0.000142132
-3.06418e-06
0.000143212
-3.04338e-06
0.000144283
-3.01911e-06
0.000145344
-2.99127e-06
0.000146393
-2.95977e-06
0.00014743
-2.92448e-06
0.000148453
-2.88525e-06
0.000149461
-2.84188e-06
0.000150451
-2.79419e-06
0.000151423
-2.74191e-06
0.000152375
-2.68475e-06
0.000153304
-2.62237e-06
0.000154209
-2.55436e-06
0.000155088
-2.48025e-06
0.000155938
-2.39947e-06
0.000156757
-2.31135e-06
0.000157543
-2.21509e-06
0.000158291
-2.10972e-06
0.000158998
-1.99409e-06
0.000159661
-1.86682e-06
0.000160275
-1.72619e-06
0.000160834
-1.57012e-06
0.000161333
-1.39604e-06
0.000161765
-1.20073e-06
0.000162121
-9.80141e-07
0.000162392
-7.29143e-07
0.000162566
-4.41129e-07
0.000162628
-1.07538e-07
0.000162561
2.82862e-07
0.000162346
7.45152e-07
0.000161955
1.29985e-06
0.000161359
1.97512e-06
0.000160519
2.81005e-06
0.000159391
3.85942e-06
0.000157929
5.2002e-06
0.000156088
6.93977e-06
0.000153851
9.22328e-06
0.000151276
1.22326e-05
0.000148616
1.61534e-05
0.00014657
2.10093e-05
2.60726e-05
0.000146392
0.000114153
-4.31834e-07
0.000114372
-8.0658e-07
0.000114681
-1.13274e-06
0.000115068
-1.41985e-06
0.000115527
-1.67683e-06
0.00011605
-1.90916e-06
0.000116632
-2.12061e-06
0.000117266
-2.3141e-06
0.00011795
-2.49195e-06
0.000118679
-2.65594e-06
0.00011945
-2.80756e-06
0.000120259
-2.94803e-06
0.000121104
-3.07836e-06
0.000121982
-3.1994e-06
0.000122891
-3.31186e-06
0.000123829
-3.41636e-06
0.000124794
-3.51342e-06
0.000125783
-3.60349e-06
0.000126795
-3.68694e-06
0.000127829
-3.76411e-06
0.000128881
-3.8353e-06
0.000129952
-3.90073e-06
0.000131039
-3.96064e-06
0.000132141
-4.0152e-06
0.000133256
-4.06458e-06
0.000134383
-4.10892e-06
0.000135521
-4.14835e-06
0.000136669
-4.18296e-06
0.000137824
-4.21284e-06
0.000138986
-4.23808e-06
0.000140154
-4.25873e-06
0.000141326
-4.27485e-06
0.000142501
-4.28648e-06
0.000143678
-4.29364e-06
0.000144855
-4.29635e-06
0.000146031
-4.29462e-06
0.000147206
-4.28844e-06
0.000148378
-4.27779e-06
0.000149545
-4.26265e-06
0.000150706
-4.24297e-06
0.000151861
-4.21868e-06
0.000153007
-4.18971e-06
0.000154144
-4.15596e-06
0.000155271
-4.11731e-06
0.000156385
-4.07362e-06
0.000157485
-4.02472e-06
0.00015857
-3.9704e-06
0.000159639
-3.91042e-06
0.000160689
-3.8445e-06
0.00016172
-3.7723e-06
0.000162729
-3.69344e-06
0.000163714
-3.60746e-06
0.000164673
-3.51381e-06
0.000165605
-3.41186e-06
0.000166506
-3.30086e-06
0.000167375
-3.17993e-06
0.000168208
-3.048e-06
0.000169002
-2.90383e-06
0.000169754
-2.74591e-06
0.00017046
-2.57242e-06
0.000171115
-2.38119e-06
0.000171714
-2.16954e-06
0.000172252
-1.9342e-06
0.000172723
-1.67115e-06
0.000173118
-1.37535e-06
0.00017343
-1.04053e-06
0.000173647
-6.58729e-07
0.000173759
-2.19854e-07
0.000173753
2.8897e-07
0.000173614
8.8443e-07
0.000173326
1.58842e-06
0.000172871
2.42968e-06
0.000172235
3.4459e-06
0.000171408
4.68627e-06
0.000170394
6.21402e-06
0.000169227
8.10757e-06
0.000167993
1.04568e-05
0.000166879
1.33464e-05
0.000166226
1.68065e-05
0.000166547
2.06886e-05
2.44018e-05
0.000168217
0.000122144
-5.48766e-07
0.000122373
-1.03569e-06
0.000122698
-1.45774e-06
0.000123108
-1.82977e-06
0.000123594
-2.1627e-06
0.000124149
-2.46359e-06
0.000124766
-2.73736e-06
0.000125439
-2.98783e-06
0.000126166
-3.21797e-06
0.00012694
-3.43015e-06
0.000127759
-3.62628e-06
0.000128619
-3.80794e-06
0.000129517
-3.97644e-06
0.000130451
-4.13289e-06
0.000131417
-4.27822e-06
0.000132414
-4.41322e-06
0.00013344
-4.53858e-06
0.000134491
-4.65486e-06
0.000135567
-4.76257e-06
0.000136665
-4.86213e-06
0.000137784
-4.95393e-06
0.000138922
-5.03827e-06
0.000140077
-5.11545e-06
0.000141247
-5.1857e-06
0.000142432
-5.24923e-06
0.00014363
-5.30622e-06
0.000144839
-5.35684e-06
0.000146057
-5.40122e-06
0.000147284
-5.43948e-06
0.000148518
-5.47171e-06
0.000149757
-5.498e-06
0.000151001
-5.51842e-06
0.000152248
-5.53302e-06
0.000153496
-5.54183e-06
0.000154745
-5.54489e-06
0.000155993
-5.54219e-06
0.000157238
-5.53374e-06
0.00015848
-5.51951e-06
0.000159717
-5.49947e-06
0.000160948
-5.47356e-06
0.000162171
-5.4417e-06
0.000163385
-5.4038e-06
0.000164589
-5.35973e-06
0.000165781
-5.30935e-06
0.00016696
-5.25248e-06
0.000168124
-5.1889e-06
0.000169273
-5.11836e-06
0.000170403
-5.04056e-06
0.000171514
-4.95516e-06
0.000172603
-4.86172e-06
0.00017367
-4.75979e-06
0.000174711
-4.64877e-06
0.000175725
-4.52802e-06
0.00017671
-4.39675e-06
0.000177664
-4.25405e-06
0.000178583
-4.09883e-06
0.000179464
-3.92983e-06
0.000180306
-3.74553e-06
0.000181104
-3.54412e-06
0.000181856
-3.32348e-06
0.000182555
-3.08101e-06
0.0001832
-2.81362e-06
0.000183783
-2.51755e-06
0.0001843
-2.18821e-06
0.000184745
-1.82e-06
0.00018511
-1.40603e-06
0.000185389
-9.37755e-07
0.000185574
-4.0464e-07
0.000185657
2.06302e-07
0.00018563
9.11304e-07
0.000185488
1.73031e-06
0.000185229
2.68843e-06
0.000184859
3.8163e-06
0.000184395
5.15049e-06
0.000183876
6.73291e-06
0.000183376
8.60778e-06
0.000183019
1.08137e-05
0.000183
1.33656e-05
0.000183587
1.62194e-05
0.000185068
1.92073e-05
2.19443e-05
0.000187525
0.000130694
-6.69046e-07
0.000130934
-1.27497e-06
0.000131275
-1.79895e-06
0.000131707
-2.26161e-06
0.00013222
-2.6757e-06
0.000132806
-3.04983e-06
0.000133459
-3.39015e-06
0.000134173
-3.70144e-06
0.000134942
-3.98738e-06
0.000135763
-4.25093e-06
0.000136632
-4.49448e-06
0.000137544
-4.71999e-06
0.000138497
-4.92911e-06
0.000139487
-5.12322e-06
0.000140513
-5.30347e-06
0.00014157
-5.47086e-06
0.000142658
-5.62622e-06
0.000143774
-5.77028e-06
0.000144915
-5.90367e-06
0.00014608
-6.02691e-06
0.000147267
-6.14047e-06
0.000148474
-6.24475e-06
0.000149698
-6.34011e-06
0.00015094
-6.42683e-06
0.000152196
-6.5052e-06
0.000153465
-6.57542e-06
0.000154747
-6.63771e-06
0.000156038
-6.69223e-06
0.000157338
-6.73913e-06
0.000158645
-6.77853e-06
0.000159957
-6.81054e-06
0.000161274
-6.83525e-06
0.000162594
-6.85271e-06
0.000163916
-6.86298e-06
0.000165237
-6.8661e-06
0.000166557
-6.86207e-06
0.000167875
-6.85089e-06
0.000169188
-6.83255e-06
0.000170495
-6.80699e-06
0.000171796
-6.77415e-06
0.000173089
-6.73395e-06
0.000174371
-6.68626e-06
0.000175643
-6.63096e-06
0.000176901
-6.56785e-06
0.000178146
-6.49674e-06
0.000179374
-6.41736e-06
0.000180586
-6.32943e-06
0.000181778
-6.23258e-06
0.000182949
-6.1264e-06
0.000184098
-6.01042e-06
0.000185222
-5.88406e-06
0.00018632
-5.74666e-06
0.00018739
-5.59746e-06
0.000188429
-5.43555e-06
0.000189435
-5.25989e-06
0.000190405
-5.06922e-06
0.000191337
-4.86212e-06
0.000192229
-4.63688e-06
0.000193076
-4.39148e-06
0.000193876
-4.12356e-06
0.000194626
-3.8303e-06
0.000195321
-3.50836e-06
0.000195957
-3.15373e-06
0.00019653
-2.76164e-06
0.000197037
-2.32635e-06
0.000197472
-1.84099e-06
0.000197831
-1.29729e-06
0.000198112
-6.85275e-07
0.000198312
6.41391e-09
0.00019843
7.92596e-07
0.000198473
1.6881e-06
0.000198449
2.71218e-06
0.000198379
3.88571e-06
0.000198299
5.23083e-06
0.000198263
6.76874e-06
0.000198355
8.51568e-06
0.000198694
1.04755e-05
0.000199432
1.26273e-05
0.000200745
1.49062e-05
0.000202775
1.71774e-05
1.92132e-05
0.000205506
0.000139843
-7.92755e-07
0.000140093
-1.52415e-06
0.00014045
-2.15614e-06
0.000140903
-2.7152e-06
0.000141444
-3.21579e-06
0.000142062
-3.66804e-06
0.000142751
-4.07935e-06
0.000143505
-4.45546e-06
0.000144319
-4.80087e-06
0.000145187
-5.11912e-06
0.000146106
-5.41314e-06
0.000147072
-5.6853e-06
0.00014808
-5.93758e-06
0.000149129
-6.17167e-06
0.000150214
-6.38897e-06
0.000151334
-6.59068e-06
0.000152486
-6.77781e-06
0.000153667
-6.95125e-06
0.000154876
-7.11176e-06
0.000156109
-7.25997e-06
0.000157365
-7.39645e-06
0.000158642
-7.5217e-06
0.000159939
-7.63612e-06
0.000161252
-7.7401e-06
0.000162581
-7.83395e-06
0.000163924
-7.91794e-06
0.000165279
-7.99232e-06
0.000166644
-8.0573e-06
0.000168018
-8.11306e-06
0.0001694
-8.15974e-06
0.000170787
-8.19748e-06
0.000172178
-8.22638e-06
0.000173572
-8.24653e-06
0.000174967
-8.25799e-06
0.000176362
-8.26081e-06
0.000177756
-8.25499e-06
0.000179145
-8.24056e-06
0.000180531
-8.21747e-06
0.000181909
-8.18569e-06
0.000183281
-8.14515e-06
0.000184643
-8.09575e-06
0.000185994
-8.03736e-06
0.000187333
-7.96983e-06
0.000188658
-7.89294e-06
0.000189968
-7.80648e-06
0.000191261
-7.71015e-06
0.000192535
-7.60362e-06
0.000193789
-7.48648e-06
0.000195021
-7.35829e-06
0.00019623
-7.21849e-06
0.000197412
-7.06646e-06
0.000198567
-6.90146e-06
0.000199692
-6.72265e-06
0.000200786
-6.52903e-06
0.000201846
-6.31946e-06
0.000202869
-6.09261e-06
0.000203854
-5.84692e-06
0.000204798
-5.58058e-06
0.000205698
-5.29148e-06
0.000206551
-4.97717e-06
0.000207356
-4.63476e-06
0.000208109
-4.2609e-06
0.000208807
-3.85165e-06
0.000209447
-3.4024e-06
0.000210029
-2.90778e-06
0.000210549
-2.36152e-06
0.000211008
-1.75637e-06
0.000211407
-1.08397e-06
0.000211748
-3.34882e-07
0.00021204
5.01547e-07
0.000212292
1.43586e-06
0.000212524
2.47966e-06
0.000212766
3.64429e-06
0.000213057
4.93927e-06
0.000213456
6.37008e-06
0.000214037
7.93477e-06
0.000214893
9.61911e-06
0.000216131
1.139e-05
0.000217849
1.31875e-05
0.000220109
1.49176e-05
1.64525e-05
0.00022287
0.000149633
-9.20049e-07
0.000149892
-1.78304e-06
0.000150265
-2.52912e-06
0.00015074
-3.19032e-06
0.000151307
-3.78287e-06
0.000151957
-4.31825e-06
0.000152683
-4.80512e-06
0.000153478
-5.25024e-06
0.000154336
-5.65891e-06
0.000155253
-6.03535e-06
0.000156223
-6.38299e-06
0.000157242
-6.70468e-06
0.000158308
-7.00277e-06
0.000159415
-7.27924e-06
0.000160562
-7.53577e-06
0.000161746
-7.77378e-06
0.000162963
-7.99448e-06
0.000164211
-8.19893e-06
0.000165487
-8.38801e-06
0.00016679
-8.56249e-06
0.000168117
-8.72305e-06
0.000169465
-8.87026e-06
0.000170834
-9.00464e-06
0.000172221
-9.1266e-06
0.000173624
-9.23655e-06
0.000175041
-9.33481e-06
0.00017647
-9.42166e-06
0.000177911
-9.49736e-06
0.00017936
-9.56212e-06
0.000180817
-9.61613e-06
0.000182279
-9.65954e-06
0.000183745
-9.69248e-06
0.000185214
-9.71506e-06
0.000186684
-9.72736e-06
0.000188153
-9.72942e-06
0.000189619
-9.72129e-06
0.000191082
-9.70297e-06
0.000192539
-9.67445e-06
0.000193989
-9.63567e-06
0.000195431
-9.58658e-06
0.000196862
-9.52706e-06
0.000198282
-9.45698e-06
0.000199689
-9.37618e-06
0.00020108
-9.28443e-06
0.000202456
-9.18148e-06
0.000203813
-9.06703e-06
0.00020515
-8.94071e-06
0.000206466
-8.8021e-06
0.000207758
-8.65071e-06
0.000209026
-8.48594e-06
0.000210267
-8.30714e-06
0.000211479
-8.11353e-06
0.00021266
-7.90421e-06
0.00021381
-7.67815e-06
0.000214924
-7.43417e-06
0.000216003
-7.17089e-06
0.000217043
-6.88674e-06
0.000218042
-6.57992e-06
0.000218999
-6.24832e-06
0.000219912
-5.88958e-06
0.000220778
-5.50093e-06
0.000221596
-5.07925e-06
0.000222366
-4.62094e-06
0.000223085
-4.12195e-06
0.000223755
-3.57766e-06
0.000224376
-2.98293e-06
0.000224952
-2.33205e-06
0.000225487
-1.61885e-06
0.000225989
-8.36698e-07
0.000226469
2.11201e-08
0.000226944
9.61038e-07
0.000227437
1.98723e-06
0.000227978
3.1034e-06
0.000228607
4.30997e-06
0.000229374
5.60262e-06
0.000230339
6.97015e-06
0.000231566
8.39199e-06
0.00023312
9.83557e-06
0.000235054
1.12543e-05
0.000237384
1.25872e-05
1.37643e-05
0.000240072
0.000160108
-1.05111e-06
0.000160376
-2.05152e-06
0.000160765
-2.91772e-06
0.000161261
-3.68679e-06
0.000161855
-4.37677e-06
0.000162538
-5.00036e-06
0.0001633
-5.56747e-06
0.000164136
-6.08588e-06
0.000165039
-6.56174e-06
0.000166004
-6.99993e-06
0.000167025
-7.40447e-06
0.000168099
-7.77866e-06
0.000169222
-8.12526e-06
0.00017039
-8.44658e-06
0.000171599
-8.74457e-06
0.000172846
-9.02091e-06
0.000174129
-9.27701e-06
0.000175444
-9.5141e-06
0.00017679
-9.73321e-06
0.000178163
-9.93527e-06
0.000179561
-1.0121e-05
0.000180982
-1.02912e-05
0.000182424
-1.04464e-05
0.000183885
-1.0587e-05
0.000185362
-1.07136e-05
0.000186854
-1.08266e-05
0.000188359
-1.09262e-05
0.000189875
-1.10129e-05
0.0001914
-1.10867e-05
0.000192932
-1.1148e-05
0.00019447
-1.1197e-05
0.000196011
-1.12337e-05
0.000197555
-1.12584e-05
0.000199099
-1.12711e-05
0.000200641
-1.12719e-05
0.000202181
-1.12608e-05
0.000203716
-1.12379e-05
0.000205245
-1.12032e-05
0.000206767
-1.11566e-05
0.000208278
-1.1098e-05
0.000209779
-1.10274e-05
0.000211267
-1.09446e-05
0.00021274
-1.08495e-05
0.000214198
-1.07417e-05
0.000215637
-1.06212e-05
0.000217058
-1.04875e-05
0.000218458
-1.03403e-05
0.000219835
-1.01791e-05
0.000221188
-1.00034e-05
0.000222515
-9.81269e-06
0.000223814
-9.60623e-06
0.000225084
-9.38326e-06
0.000226323
-9.14288e-06
0.000227529
-8.88407e-06
0.0002287
-8.60566e-06
0.000229836
-8.30632e-06
0.000230934
-7.98456e-06
0.000231993
-7.63868e-06
0.000233011
-7.26674e-06
0.000233988
-6.86659e-06
0.000234923
-6.4358e-06
0.000235816
-5.97168e-06
0.000236666
-5.47126e-06
0.000237475
-4.93127e-06
0.000238246
-4.34819e-06
0.000238981
-3.71831e-06
0.000239687
-3.03776e-06
0.000240371
-2.30272e-06
0.000241044
-1.50953e-06
0.00024172
-6.55004e-07
0.000242418
2.63404e-07
0.000243159
1.24552e-06
0.000243974
2.28882e-06
0.000244896
3.38834e-06
0.000245963
4.53501e-06
0.000247219
5.71459e-06
0.000248704
6.90681e-06
0.000250455
8.0848e-06
0.000252493
9.21538e-06
0.00025482
1.02607e-05
1.11827e-05
0.000257402
0.000171316
-1.1861e-06
0.000171594
-2.32951e-06
0.000171998
-3.32179e-06
0.000172516
-4.20436e-06
0.000173137
-4.99722e-06
0.00017385
-5.71415e-06
0.000174649
-6.36624e-06
0.000175526
-6.9623e-06
0.000176474
-7.50932e-06
0.000177487
-8.01293e-06
0.00017856
-8.4777e-06
0.000179689
-8.90743e-06
0.000180869
-9.3053e-06
0.000182097
-9.67397e-06
0.000183368
-1.00157e-05
0.00018468
-1.03324e-05
0.000186029
-1.06257e-05
0.000187412
-1.08971e-05
0.000188827
-1.11477e-05
0.000190271
-1.13786e-05
0.000191741
-1.15907e-05
0.000193235
-1.17848e-05
0.00019475
-1.19616e-05
0.000196285
-1.21216e-05
0.000197837
-1.22654e-05
0.000199404
-1.23934e-05
0.000200984
-1.25061e-05
0.000202575
-1.26038e-05
0.000204176
-1.26867e-05
0.000205783
-1.27552e-05
0.000207396
-1.28095e-05
0.000209012
-1.28497e-05
0.00021063
-1.28761e-05
0.000212248
-1.28887e-05
0.000213864
-1.28876e-05
0.000215476
-1.28729e-05
0.000217084
-1.28447e-05
0.000218683
-1.28029e-05
0.000220275
-1.27475e-05
0.000221855
-1.26785e-05
0.000223424
-1.25958e-05
0.000224979
-1.24993e-05
0.000226519
-1.23887e-05
0.000228041
-1.2264e-05
0.000229545
-1.21247e-05
0.000231028
-1.19707e-05
0.000232489
-1.18015e-05
0.000233927
-1.16168e-05
0.00023534
-1.1416e-05
0.000236726
-1.11985e-05
0.000238084
-1.09638e-05
0.000239412
-1.07111e-05
0.000240709
-1.04395e-05
0.000241973
-1.01481e-05
0.000243203
-9.83581e-06
0.000244398
-9.50143e-06
0.000245557
-9.14363e-06
0.00024668
-8.76093e-06
0.000247765
-8.35169e-06
0.000248812
-7.91412e-06
0.000249823
-7.44628e-06
0.000250798
-6.9461e-06
0.000251738
-6.41138e-06
0.000252646
-5.83985e-06
0.000253527
-5.22923e-06
0.000254386
-4.57731e-06
0.000255231
-3.88209e-06
0.00025607
-3.14194e-06
0.000256916
-2.35584e-06
0.000257785
-1.52352e-06
0.000258694
-6.4566e-07
0.000259664
2.75457e-07
0.000260718
1.23449e-06
0.000261884
2.223e-06
0.000263188
3.23076e-06
0.000264659
4.24396e-06
0.00026632
5.24555e-06
0.000268189
6.21537e-06
0.000270274
7.13104e-06
0.000272565
7.96961e-06
8.71042e-06
0.000275037
0.00018331
-1.3252e-06
0.000183597
-2.61694e-06
0.000184016
-3.74112e-06
0.000184555
-4.74279e-06
0.000185202
-5.64388e-06
0.000185947
-6.45926e-06
0.000186782
-7.20106e-06
0.000187699
-7.87915e-06
0.000188691
-8.50138e-06
0.000189752
-9.07408e-06
0.000190877
-9.60245e-06
0.000192061
-1.00908e-05
0.000193299
-1.05427e-05
0.000194586
-1.09613e-05
0.00019592
-1.1349e-05
0.000197296
-1.17082e-05
0.000198711
-1.20406e-05
0.000200162
-1.23478e-05
0.000201646
-1.26314e-05
0.00020316
-1.28924e-05
0.000204701
-1.31319e-05
0.000206267
-1.33508e-05
0.000207856
-1.35499e-05
0.000209465
-1.37298e-05
0.000211091
-1.38913e-05
0.000212732
-1.40347e-05
0.000214387
-1.41606e-05
0.000216053
-1.42694e-05
0.000217728
-1.43614e-05
0.00021941
-1.44369e-05
0.000221097
-1.44962e-05
0.000222787
-1.45396e-05
0.000224479
-1.45671e-05
0.000226169
-1.4579e-05
0.000227857
-1.45753e-05
0.000229541
-1.45563e-05
0.000231219
-1.45219e-05
0.000232888
-1.44722e-05
0.000234548
-1.44071e-05
0.000236196
-1.43268e-05
0.000237832
-1.42309e-05
0.000239452
-1.41196e-05
0.000241056
-1.39926e-05
0.000242642
-1.38497e-05
0.000244209
-1.36908e-05
0.000245754
-1.35155e-05
0.000247276
-1.33235e-05
0.000248774
-1.31144e-05
0.000250246
-1.28878e-05
0.000251691
-1.26432e-05
0.000253107
-1.238e-05
0.000254493
-1.20975e-05
0.000255849
-1.1795e-05
0.000257173
-1.14716e-05
0.000258464
-1.11266e-05
0.000259721
-1.07588e-05
0.000260945
-1.03673e-05
0.000262135
-9.95072e-06
0.000263291
-9.50798e-06
0.000264415
-9.03773e-06
0.000265507
-8.53861e-06
0.00026657
-8.00929e-06
0.000267608
-7.44842e-06
0.000268623
-6.85478e-06
0.000269621
-6.22732e-06
0.000270609
-5.56524e-06
0.000271595
-4.86819e-06
0.000272589
-4.13635e-06
0.000273604
-3.37067e-06
0.000274654
-2.57299e-06
0.000275754
-1.74623e-06
0.000276924
-8.9437e-07
0.000278181
-2.26818e-08
0.000279544
8.60357e-07
0.00028103
1.74453e-06
0.000282657
2.61752e-06
0.000284436
3.4664e-06
0.000286374
4.27684e-06
0.000288471
5.03424e-06
0.000290716
5.72495e-06
6.33795e-06
0.000293088
0.000196142
-1.4685e-06
0.000196439
-2.91371e-06
0.000196874
-4.1755e-06
0.000197433
-5.3017e-06
0.000198105
-6.31631e-06
0.000198881
-7.23515e-06
0.000199752
-8.07138e-06
0.000200709
-8.83585e-06
0.000201745
-9.5373e-06
0.000202854
-1.01828e-05
0.000204029
-1.07781e-05
0.000205267
-1.13282e-05
0.000206561
-1.18369e-05
0.000207908
-1.23079e-05
0.000209303
-1.27439e-05
0.000210743
-1.31475e-05
0.000212224
-1.35208e-05
0.000213742
-1.38655e-05
0.000215294
-1.41834e-05
0.000216878
-1.44757e-05
0.00021849
-1.47436e-05
0.000220127
-1.49882e-05
0.000221788
-1.52103e-05
0.000223469
-1.54108e-05
0.000225169
-1.55902e-05
0.000226884
-1.57493e-05
0.000228612
-1.58886e-05
0.000230351
-1.60084e-05
0.000232099
-1.61093e-05
0.000233854
-1.61916e-05
0.000235614
-1.62555e-05
0.000237376
-1.63015e-05
0.000239139
-1.63296e-05
0.000240901
-1.63402e-05
0.000242659
-1.63333e-05
0.000244412
-1.6309e-05
0.000246158
-1.62676e-05
0.000247895
-1.6209e-05
0.000249622
-1.61334e-05
0.000251336
-1.60406e-05
0.000253036
-1.59307e-05
0.00025472
-1.58035e-05
0.000256387
-1.56591e-05
0.000258035
-1.54972e-05
0.000259662
-1.53177e-05
0.000261267
-1.51203e-05
0.000262848
-1.49048e-05
0.000264405
-1.46708e-05
0.000265935
-1.44181e-05
0.000267438
-1.41461e-05
0.000268913
-1.38545e-05
0.000270359
-1.35426e-05
0.000271774
-1.321e-05
0.000273158
-1.28559e-05
0.000274512
-1.24798e-05
0.000275834
-1.20809e-05
0.000277125
-1.16584e-05
0.000278386
-1.12116e-05
0.000279618
-1.07397e-05
0.000280822
-1.0242e-05
0.000282001
-9.71767e-06
0.000283158
-9.16618e-06
0.000284297
-8.58706e-06
0.000285423
-7.98004e-06
0.00028654
-7.34515e-06
0.000287658
-6.68282e-06
0.000288784
-5.99393e-06
0.000289928
-5.27999e-06
0.0002911
-4.54322e-06
0.000292314
-3.78667e-06
0.000293582
-3.01434e-06
0.000294919
-2.23115e-06
0.000296339
-1.44299e-06
0.000297856
-6.56023e-07
0.000299478
1.21603e-07
0.000301216
8.80288e-07
0.000303072
1.61009e-06
0.000305048
2.30077e-06
0.000307139
2.94296e-06
0.000309336
3.52879e-06
4.05253e-06
0.000311621
0.000209874
-1.61606e-06
0.00021018
-3.21966e-06
0.000210629
-4.62455e-06
0.000211208
-5.88062e-06
0.000211906
-7.01387e-06
0.000212712
-8.04108e-06
0.000213617
-8.97634e-06
0.000214613
-9.8315e-06
0.000215692
-1.06161e-05
0.000216847
-1.1338e-05
0.000218073
-1.20037e-05
0.000219363
-1.26184e-05
0.000220713
-1.31868e-05
0.000222118
-1.37126e-05
0.000223574
-1.41991e-05
0.000225076
-1.46491e-05
0.00022662
-1.5065e-05
0.000228204
-1.54489e-05
0.000229823
-1.58024e-05
0.000231475
-1.61271e-05
0.000233156
-1.64244e-05
0.000234864
-1.66954e-05
0.000236595
-1.69411e-05
0.000238347
-1.71625e-05
0.000240118
-1.73603e-05
0.000241904
-1.75352e-05
0.000243703
-1.76878e-05
0.000245514
-1.78186e-05
0.000247333
-1.79282e-05
0.000249159
-1.80168e-05
0.000250989
-1.8085e-05
0.00025282
-1.8133e-05
0.000254652
-1.81611e-05
0.000256482
-1.81696e-05
0.000258308
-1.81586e-05
0.000260128
-1.81284e-05
0.000261939
-1.80791e-05
0.000263741
-1.80107e-05
0.000265532
-1.79235e-05
0.000267309
-1.78173e-05
0.000269071
-1.76923e-05
0.000270816
-1.75485e-05
0.000272543
-1.73857e-05
0.00027425
-1.7204e-05
0.000275936
-1.70032e-05
0.000277599
-1.67831e-05
0.000279238
-1.65437e-05
0.000280852
-1.62846e-05
0.00028244
-1.60056e-05
0.000284
-1.57065e-05
0.000285533
-1.53869e-05
0.000287037
-1.50465e-05
0.000288512
-1.4685e-05
0.000289958
-1.43019e-05
0.000291376
-1.38969e-05
0.000292764
-1.34695e-05
0.000294126
-1.30195e-05
0.00029546
-1.25463e-05
0.000296771
-1.20499e-05
0.000298059
-1.15299e-05
0.000299328
-1.09864e-05
0.000300581
-1.04193e-05
0.000301823
-9.82899e-06
0.000303059
-9.21605e-06
0.000304295
-8.58137e-06
0.000305539
-7.92625e-06
0.000306797
-7.25243e-06
0.000308079
-6.56222e-06
0.000309395
-5.85851e-06
0.000310753
-5.14484e-06
0.000312164
-4.42544e-06
0.000313638
-3.70516e-06
0.000315185
-2.98947e-06
0.000316813
-2.28426e-06
0.00031853
-1.59573e-06
0.00032034
-9.29707e-07
0.000322243
-2.92861e-07
0.000324236
3.08145e-07
0.000326312
8.67185e-07
0.000328461
1.37943e-06
1.84195e-06
0.000330672
0.000224566
-1.76785e-06
0.000224881
-3.53455e-06
0.000225345
-5.08779e-06
0.000225943
-6.47886e-06
0.000226665
-7.73568e-06
0.0002275
-8.876e-06
0.000228439
-9.91478e-06
0.000229472
-1.08648e-05
0.000230593
-1.17364e-05
0.000231793
-1.25383e-05
0.000233067
-1.32775e-05
0.000234409
-1.39599e-05
0.000235813
-1.45905e-05
0.000237274
-1.51736e-05
0.000238788
-1.57128e-05
0.00024035
-1.62111e-05
0.000241957
-1.66713e-05
0.000243604
-1.70956e-05
0.000245288
-1.7486e-05
0.000247005
-1.78442e-05
0.000248753
-1.81717e-05
0.000250528
-1.84698e-05
0.000252327
-1.87397e-05
0.000254147
-1.89824e-05
0.000255986
-1.91987e-05
0.000257841
-1.93894e-05
0.000259708
-1.95553e-05
0.000261587
-1.96969e-05
0.000263474
-1.98148e-05
0.000265367
-1.99094e-05
0.000267264
-1.99813e-05
0.000269162
-2.00307e-05
0.000271059
-2.00581e-05
0.000272954
-2.00638e-05
0.000274843
-2.00479e-05
0.000276726
-2.00108e-05
0.0002786
-1.99526e-05
0.000280463
-1.98736e-05
0.000282314
-1.97738e-05
0.00028415
-1.96534e-05
0.000285971
-1.95125e-05
0.000287774
-1.93511e-05
0.000289558
-1.91693e-05
0.000291321
-1.89671e-05
0.000293063
-1.87445e-05
0.000294781
-1.85014e-05
0.000296475
-1.82377e-05
0.000298145
-1.79535e-05
0.000299788
-1.76486e-05
0.000301405
-1.73229e-05
0.000302994
-1.69763e-05
0.000304556
-1.66086e-05
0.000306091
-1.62198e-05
0.000307599
-1.58098e-05
0.000309081
-1.53784e-05
0.000310537
-1.49256e-05
0.00031197
-1.44515e-05
0.000313379
-1.39561e-05
0.000314769
-1.34397e-05
0.000316142
-1.29025e-05
0.000317501
-1.23451e-05
0.00031885
-1.17682e-05
0.000320194
-1.11726e-05
0.000321537
-1.05596e-05
0.000322887
-9.93068e-06
0.000324248
-9.28768e-06
0.000325629
-8.63285e-06
0.000327035
-7.96886e-06
0.000328476
-7.2988e-06
0.000329957
-6.62621e-06
0.000331487
-5.95501e-06
0.000333071
-5.28952e-06
0.000334716
-4.63434e-06
0.000336426
-3.99424e-06
0.000338205
-3.37405e-06
0.000340053
-2.77849e-06
0.000341973
-2.21205e-06
0.000343959
-1.67835e-06
0.000346007
-1.18048e-06
0.000348107
-7.21036e-07
-3.01229e-07
0.00035025
0.000240287
-1.92375e-06
0.000240611
-3.858e-06
0.000241088
-5.56451e-06
0.000241704
-7.09547e-06
0.000242449
-8.48056e-06
0.000243312
-9.7385e-06
0.000244282
-1.08851e-05
0.000245352
-1.19339e-05
0.000246512
-1.28963e-05
0.000247755
-1.37815e-05
0.000249075
-1.45973e-05
0.000250466
-1.53502e-05
0.000251921
-1.60456e-05
0.000253436
-1.66882e-05
0.000255006
-1.72821e-05
0.000256626
-1.78305e-05
0.000258291
-1.83365e-05
0.000259999
-1.88026e-05
0.000261744
-1.9231e-05
0.000263524
-1.96236e-05
0.000265335
-1.99821e-05
0.000267173
-2.03079e-05
0.000269036
-2.06023e-05
0.000270921
-2.08665e-05
0.000272824
-2.11014e-05
0.000274743
-2.13079e-05
0.000276675
-2.14869e-05
0.000278618
-2.16389e-05
0.000280568
-2.17647e-05
0.000282524
-2.18649e-05
0.000284483
-2.19398e-05
0.000286443
-2.199e-05
0.000288401
-2.2016e-05
0.000290355
-2.2018e-05
0.000292304
-2.19964e-05
0.000294245
-2.19515e-05
0.000296177
-2.18837e-05
0.000298097
-2.1793e-05
0.000300003
-2.16799e-05
0.000301895
-2.15444e-05
0.000303769
-2.13868e-05
0.000305626
-2.12072e-05
0.000307462
-2.10058e-05
0.000309278
-2.07826e-05
0.000311072