/*--------------------------------*- C++ -*----------------------------------*\
| =========                 |                                                 |
| \\      /  F ield         | OpenFOAM: The Open Source CFD Toolbox           |
|  \\    /   O peration     | Version:  2106                                  |
|   \\  /    A nd           | Website:  www.openfoam.com                      |
|    \\/     M anipulation  |                                                 |
\*---------------------------------------------------------------------------*/
FoamFile
{
    version     2.0;
    format      ascii;
    arch        "LSB;label=32;scalar=64";
    class       volScalarField;
    location    "6.6";
    object      T;
}
// * * * * * * * * * * * * * * * * * * * * * * * * * * * * * * * * * * * * * //

dimensions      [0 0 0 1 0 0 0];

internalField   nonuniform List<scalar> 
12013
(
300.003
300.01
300.018
300.025
300.033
300.041
300.05
300.058
300.068
300.077
300.087
300.097
300.108
300.119
300.131
300.143
300.155
300.168
300.181
300.195
300.209
300.224
300.239
300.254
300.271
300.287
300.305
300.322
300.341
300.36
300.379
300.399
300.42
300.442
300.464
300.486
300.51
300.534
300.559
300.584
300.61
300.637
300.665
300.694
300.723
300.753
300.784
300.816
300.849
300.883
300.918
300.953
300.99
301.028
301.067
301.107
301.148
301.19
301.234
301.279
301.325
301.373
301.422
301.473
301.525
301.58
301.636
301.694
301.755
301.818
301.883
301.952
302.023
302.099
302.178
302.263
302.354
302.453
302.562
302.685
302.833
300.003
300.01
300.018
300.025
300.033
300.041
300.05
300.058
300.068
300.077
300.087
300.097
300.108
300.119
300.131
300.143
300.155
300.168
300.181
300.195
300.209
300.224
300.239
300.254
300.271
300.287
300.305
300.322
300.341
300.36
300.379
300.399
300.42
300.442
300.464
300.486
300.51
300.534
300.559
300.584
300.61
300.637
300.665
300.694
300.723
300.753
300.784
300.816
300.849
300.883
300.918
300.953
300.99
301.028
301.067
301.107
301.148
301.19
301.234
301.278
301.325
301.372
301.422
301.472
301.525
301.579
301.635
301.693
301.754
301.816
301.881
301.95
302.021
302.096
302.175
302.259
302.348
302.444
302.549
302.664
302.79
300.003
300.01
300.018
300.025
300.033
300.041
300.05
300.058
300.068
300.077
300.087
300.097
300.108
300.119
300.131
300.143
300.155
300.168
300.181
300.195
300.209
300.224
300.239
300.254
300.271
300.287
300.305
300.322
300.341
300.36
300.379
300.399
300.42
300.442
300.464
300.486
300.51
300.534
300.559
300.584
300.61
300.637
300.665
300.694
300.723
300.753
300.784
300.816
300.849
300.883
300.917
300.953
300.99
301.027
301.066
301.106
301.147
301.189
301.233
301.278
301.324
301.371
301.42
301.471
301.523
301.577
301.633
301.691
301.751
301.813
301.878
301.945
302.016
302.09
302.167
302.249
302.335
302.427
302.525
302.628
302.736
300.003
300.01
300.018
300.025
300.033
300.041
300.05
300.058
300.068
300.077
300.087
300.097
300.108
300.119
300.131
300.143
300.155
300.168
300.181
300.195
300.209
300.224
300.239
300.254
300.271
300.287
300.305
300.322
300.341
300.36
300.379
300.399
300.42
300.441
300.464
300.486
300.51
300.534
300.558
300.584
300.61
300.637
300.665
300.693
300.723
300.753
300.784
300.816
300.848
300.882
300.917
300.952
300.989
301.027
301.065
301.105
301.146
301.188
301.231
301.276
301.322
301.369
301.418
301.469
301.521
301.574
301.63
301.687
301.746
301.808
301.872
301.938
302.007
302.079
302.155
302.234
302.316
302.402
302.492
302.585
302.678
300.003
300.01
300.018
300.025
300.033
300.041
300.05
300.058
300.068
300.077
300.087
300.097
300.108
300.119
300.131
300.143
300.155
300.168
300.181
300.195
300.209
300.223
300.239
300.254
300.27
300.287
300.304
300.322
300.341
300.36
300.379
300.399
300.42
300.441
300.463
300.486
300.509
300.533
300.558
300.584
300.61
300.637
300.664
300.693
300.722
300.752
300.783
300.815
300.848
300.881
300.916
300.951
300.988
301.025
301.064
301.104
301.144
301.186
301.23
301.274
301.32
301.367
301.415
301.465
301.517
301.57
301.625
301.681
301.74
301.801
301.863
301.928
301.996
302.065
302.138
302.213
302.291
302.371
302.453
302.537
302.619
300.003
300.01
300.018
300.025
300.033
300.041
300.05
300.058
300.068
300.077
300.087
300.097
300.108
300.119
300.131
300.142
300.155
300.168
300.181
300.195
300.209
300.223
300.239
300.254
300.27
300.287
300.304
300.322
300.34
300.359
300.379
300.399
300.42
300.441
300.463
300.486
300.509
300.533
300.558
300.583
300.609
300.636
300.664
300.692
300.721
300.751
300.782
300.814
300.847
300.88
300.915
300.95
300.986
301.024
301.062
301.102
301.142
301.184
301.227
301.271
301.316
301.363
301.411
301.461
301.512
301.564
301.618
301.674
301.731
301.791
301.852
301.915
301.98
302.047
302.117
302.188
302.261
302.335
302.41
302.486
302.56
300.003
300.01
300.018
300.025
300.033
300.041
300.05
300.058
300.068
300.077
300.087
300.097
300.108
300.119
300.131
300.142
300.155
300.168
300.181
300.194
300.209
300.223
300.238
300.254
300.27
300.287
300.304
300.322
300.34
300.359
300.379
300.399
300.42
300.441
300.463
300.485
300.509
300.533
300.557
300.583
300.609
300.636
300.663
300.691
300.721
300.751
300.781
300.813
300.845
300.879
300.913
300.948
300.985
301.022
301.06
301.099
301.14
301.181
301.223
301.267
301.312
301.358
301.406
301.455
301.505
301.556
301.61
301.664
301.72
301.778
301.838
301.899
301.961
302.025
302.091
302.158
302.226
302.295
302.364
302.433
302.5
300.003
300.01
300.018
300.025
300.033
300.041
300.05
300.058
300.068
300.077
300.087
300.097
300.108
300.119
300.13
300.142
300.155
300.168
300.181
300.194
300.209
300.223
300.238
300.254
300.27
300.287
300.304
300.322
300.34
300.359
300.378
300.398
300.419
300.44
300.462
300.485
300.508
300.532
300.557
300.582
300.608
300.635
300.662
300.69
300.72
300.749
300.78
300.812
300.844
300.877
300.911
300.946
300.982
301.019
301.057
301.096
301.136
301.177
301.219
301.262
301.307
301.352
301.399
301.447
301.496
301.547
301.599
301.652
301.707
301.763
301.82
301.879
301.939
302
302.062
302.125
302.188
302.252
302.315
302.378
302.44
300.003
300.01
300.018
300.025
300.033
300.041
300.05
300.058
300.068
300.077
300.087
300.097
300.108
300.119
300.13
300.142
300.155
300.167
300.181
300.194
300.208
300.223
300.238
300.254
300.27
300.287
300.304
300.321
300.34
300.359
300.378
300.398
300.419
300.44
300.462
300.484
300.508
300.531
300.556
300.581
300.607
300.634
300.661
300.689
300.718
300.748
300.778
300.81
300.842
300.875
300.909
300.944
300.979
301.016
301.053
301.092
301.131
301.172
301.214
301.256
301.3
301.345
301.391
301.438
301.486
301.535
301.586
301.638
301.691
301.745
301.8
301.856
301.913
301.971
302.029
302.088
302.147
302.206
302.265
302.322
302.379
300.003
300.01
300.018
300.025
300.033
300.041
300.05
300.058
300.067
300.077
300.087
300.097
300.108
300.119
300.13
300.142
300.155
300.167
300.18
300.194
300.208
300.223
300.238
300.254
300.27
300.286
300.303
300.321
300.339
300.358
300.378
300.398
300.418
300.439
300.461
300.484
300.507
300.531
300.555
300.58
300.606
300.632
300.66
300.688
300.716
300.746
300.776
300.807
300.839
300.872
300.906
300.94
300.975
301.012
301.049
301.087
301.126
301.166
301.207
301.249
301.292
301.336
301.381
301.427
301.474
301.522
301.571
301.621
301.672
301.724
301.776
301.83
301.884
301.938
301.993
302.048
302.103
302.158
302.212
302.266
302.318
300.003
300.01
300.018
300.025
300.033
300.041
300.049
300.058
300.067
300.077
300.087
300.097
300.108
300.119
300.13
300.142
300.154
300.167
300.18
300.194
300.208
300.223
300.238
300.253
300.269
300.286
300.303
300.321
300.339
300.358
300.377
300.397
300.418
300.439
300.46
300.483
300.506
300.529
300.554
300.579
300.604
300.631
300.658
300.686
300.714
300.744
300.774
300.805
300.836
300.869
300.902
300.936
300.971
301.007
301.043
301.081
301.119
301.159
301.199
301.24
301.282
301.325
301.369
301.414
301.459
301.506
301.553
301.601
301.65
301.7
301.75
301.801
301.852
301.903
301.955
302.006
302.057
302.108
302.158
302.208
302.256
300.003
300.01
300.018
300.025
300.033
300.041
300.049
300.058
300.067
300.077
300.087
300.097
300.108
300.119
300.13
300.142
300.154
300.167
300.18
300.194
300.208
300.222
300.237
300.253
300.269
300.286
300.303
300.32
300.338
300.357
300.376
300.396
300.417
300.438
300.459
300.482
300.505
300.528
300.552
300.577
300.603
300.629
300.656
300.684
300.712
300.741
300.771
300.801
300.833
300.865
300.898
300.931
300.966
301.001
301.037
301.074
301.112
301.15
301.19
301.23
301.271
301.312
301.355
301.398
301.443
301.487
301.533
301.579
301.626
301.673
301.721
301.769
301.817
301.865
301.913
301.961
302.009
302.057
302.103
302.149
302.194
300.003
300.01
300.018
300.025
300.033
300.041
300.049
300.058
300.067
300.077
300.087
300.097
300.108
300.119
300.13
300.142
300.154
300.167
300.18
300.193
300.208
300.222
300.237
300.253
300.269
300.285
300.302
300.32
300.338
300.356
300.376
300.395
300.416
300.437
300.458
300.48
300.503
300.527
300.551
300.575
300.601
300.627
300.653
300.681
300.709
300.738
300.767
300.797
300.828
300.86
300.892
300.925
300.959
300.994
301.029
301.066
301.102
301.14
301.179
301.218
301.258
301.298
301.339
301.381
301.424
301.467
301.51
301.554
301.599
301.644
301.689
301.734
301.78
301.825
301.87
301.915
301.96
302.004
302.047
302.09
302.132
300.003
300.01
300.017
300.025
300.033
300.041
300.049
300.058
300.067
300.077
300.087
300.097
300.107
300.118
300.13
300.142
300.154
300.167
300.18
300.193
300.207
300.222
300.237
300.252
300.268
300.285
300.301
300.319
300.337
300.356
300.375
300.394
300.415
300.435
300.457
300.479
300.502
300.525
300.549
300.573
300.598
300.624
300.65
300.677
300.705
300.734
300.763
300.793
300.823
300.854
300.886
300.919
300.952
300.986
301.021
301.056
301.092
301.129
301.166
301.204
301.243
301.282
301.321
301.362
301.403
301.444
301.485
301.527
301.57
301.612
301.655
301.697
301.74
301.783
301.825
301.867
301.908
301.949
301.99
302.03
302.069
300.003
300.01
300.017
300.025
300.033
300.041
300.049
300.058
300.067
300.077
300.086
300.097
300.107
300.118
300.13
300.141
300.154
300.166
300.179
300.193
300.207
300.221
300.236
300.252
300.267
300.284
300.301
300.318
300.336
300.355
300.374
300.393
300.413
300.434
300.455
300.477
300.499
300.523
300.546
300.57
300.595
300.621
300.647
300.674
300.701
300.729
300.758
300.787
300.817
300.848
300.879
300.911
300.943
300.977
301.01
301.045
301.08
301.115
301.152
301.188
301.226
301.263
301.302
301.34
301.379
301.419
301.458
301.498
301.538
301.578
301.618
301.658
301.699
301.738
301.778
301.817
301.856
301.894
301.932
301.969
302.006
300.003
300.01
300.017
300.025
300.033
300.041
300.049
300.058
300.067
300.076
300.086
300.096
300.107
300.118
300.129
300.141
300.153
300.166
300.179
300.192
300.206
300.221
300.236
300.251
300.267
300.283
300.3
300.317
300.335
300.353
300.372
300.392
300.412
300.432
300.453
300.475
300.497
300.52
300.543
300.567
300.592
300.617
300.643
300.669
300.696
300.724
300.752
300.781
300.81
300.84
300.871
300.902
300.934
300.966
300.999
301.032
301.066
301.101
301.136
301.171
301.207
301.243
301.28
301.317
301.354
301.391
301.429
301.467
301.504
301.542
301.58
301.618
301.655
301.692
301.729
301.766
301.802
301.838
301.873
301.908
301.942
300.003
300.01
300.017
300.025
300.033
300.041
300.049
300.058
300.067
300.076
300.086
300.096
300.107
300.118
300.129
300.141
300.153
300.165
300.178
300.192
300.206
300.22
300.235
300.25
300.266
300.282
300.299
300.316
300.334
300.352
300.371
300.39
300.41
300.43
300.451
300.472
300.494
300.517
300.54
300.564
300.588
300.613
300.638
300.664
300.691
300.718
300.745
300.773
300.802
300.831
300.861
300.892
300.923
300.954
300.986
301.018
301.051
301.084
301.118
301.152
301.186
301.221
301.256
301.291
301.326
301.362
301.397
301.433
301.469
301.504
301.54
301.575
301.61
301.645
301.68
301.714
301.748
301.781
301.814
301.847
301.878
300.003
300.01
300.017
300.025
300.033
300.041
300.049
300.058
300.067
300.076
300.086
300.096
300.106
300.117
300.129
300.14
300.152
300.165
300.178
300.191
300.205
300.219
300.234
300.249
300.265
300.281
300.297
300.315
300.332
300.35
300.369
300.388
300.407
300.428
300.448
300.469
300.491
300.513
300.536
300.559
300.583
300.608
300.633
300.658
300.684
300.711
300.738
300.765
300.793
300.822
300.851
300.88
300.91
300.941
300.971
301.003
301.034
301.066
301.098
301.131
301.164
301.197
301.23
301.263
301.297
301.331
301.364
301.398
301.431
301.465
301.498
301.531
301.564
301.597
301.629
301.661
301.693
301.724
301.755
301.785
301.815
300.003
300.01
300.017
300.025
300.032
300.04
300.049
300.057
300.067
300.076
300.086
300.096
300.106
300.117
300.128
300.14
300.152
300.164
300.177
300.19
300.204
300.218
300.233
300.248
300.264
300.28
300.296
300.313
300.33
300.348
300.367
300.386
300.405
300.425
300.445
300.466
300.487
300.509
300.532
300.555
300.578
300.602
300.626
300.651
300.677
300.703
300.729
300.756
300.783
300.811
300.839
300.867
300.896
300.926
300.955
300.985
301.016
301.046
301.077
301.108
301.139
301.171
301.202
301.234
301.266
301.298
301.329
301.361
301.392
301.424
301.455
301.486
301.517
301.547
301.578
301.608
301.637
301.666
301.695
301.723
301.751
300.003
300.01
300.017
300.025
300.032
300.04
300.049
300.057
300.066
300.076
300.085
300.095
300.106
300.117
300.128
300.139
300.151
300.164
300.176
300.19
300.203
300.217
300.232
300.247
300.262
300.278
300.294
300.311
300.328
300.346
300.364
300.383
300.402
300.422
300.442
300.462
300.483
300.505
300.527
300.549
300.572
300.596
300.619
300.644
300.669
300.694
300.719
300.745
300.772
300.799
300.826
300.853
300.881
300.909
300.938
300.967
300.996
301.025
301.054
301.084
301.114
301.143
301.173
301.203
301.233
301.263
301.293
301.323
301.352
301.382
301.411
301.44
301.469
301.497
301.526
301.553
301.581
301.608
301.635
301.661
301.687
300.003
300.01
300.017
300.025
300.032
300.04
300.048
300.057
300.066
300.075
300.085
300.095
300.105
300.116
300.127
300.139
300.151
300.163
300.176
300.189
300.202
300.216
300.23
300.245
300.261
300.276
300.292
300.309
300.326
300.343
300.361
300.38
300.399
300.418
300.438
300.458
300.478
300.5
300.521
300.543
300.566
300.588
300.612
300.635
300.659
300.684
300.709
300.734
300.759
300.785
300.812
300.838
300.865
300.892
300.919
300.947
300.974
301.002
301.03
301.058
301.086
301.115
301.143
301.171
301.199
301.227
301.255
301.283
301.311
301.339
301.366
301.393
301.42
301.447
301.473
301.499
301.525
301.55
301.575
301.6
301.624
300.003
300.01
300.017
300.024
300.032
300.04
300.048
300.057
300.066
300.075
300.085
300.094
300.105
300.115
300.126
300.138
300.15
300.162
300.175
300.188
300.201
300.215
300.229
300.244
300.259
300.274
300.29
300.306
300.323
300.341
300.358
300.376
300.395
300.414
300.433
300.453
300.473
300.494
300.515
300.536
300.558
300.58
300.603
300.626
300.649
300.673
300.697
300.721
300.746
300.771
300.796
300.821
300.847
300.873
300.899
300.925
300.951
300.978
301.004
301.031
301.058
301.084
301.111
301.138
301.164
301.19
301.217
301.243
301.269
301.295
301.32
301.346
301.371
301.396
301.42
301.445
301.469
301.492
301.516
301.538
301.561
300.003
300.01
300.017
300.024
300.032
300.04
300.048
300.057
300.065
300.075
300.084
300.094
300.104
300.115
300.126
300.137
300.149
300.161
300.173
300.186
300.199
300.213
300.227
300.242
300.257
300.272
300.288
300.304
300.32
300.337
300.355
300.372
300.39
300.409
300.428
300.447
300.467
300.487
300.508
300.529
300.55
300.571
300.593
300.616
300.638
300.661
300.684
300.708
300.731
300.755
300.779
300.804
300.828
300.853
300.878
300.902
300.927
300.953
300.978
301.003
301.028
301.053
301.078
301.103
301.128
301.153
301.177
301.202
301.226
301.25
301.274
301.298
301.322
301.345
301.368
301.39
301.413
301.435
301.456
301.478
301.499
300.003
300.01
300.017
300.024
300.032
300.04
300.048
300.056
300.065
300.074
300.084
300.093
300.104
300.114
300.125
300.136
300.148
300.16
300.172
300.185
300.198
300.211
300.225
300.24
300.254
300.269
300.285
300.301
300.317
300.334
300.351
300.368
300.386
300.404
300.422
300.441
300.461
300.48
300.5
300.52
300.541
300.562
300.583
300.604
300.626
300.648
300.67
300.693
300.716
300.739
300.762
300.785
300.808
300.832
300.855
300.879
300.902
300.926
300.95
300.974
300.997
301.021
301.044
301.068
301.091
301.114
301.138
301.161
301.183
301.206
301.228
301.25
301.272
301.294
301.315
301.336
301.357
301.378
301.398
301.418
301.438
300.003
300.01
300.017
300.024
300.032
300.039
300.047
300.056
300.065
300.074
300.083
300.093
300.103
300.113
300.124
300.135
300.146
300.158
300.171
300.183
300.196
300.209
300.223
300.237
300.252
300.266
300.282
300.297
300.313
300.329
300.346
300.363
300.38
300.398
300.416
300.435
300.453
300.472
300.492
300.511
300.531
300.551
300.572
300.592
300.613
300.635
300.656
300.677
300.699
300.721
300.743
300.765
300.787
300.809
300.832
300.854
300.876
300.899
300.921
300.944
300.966
300.988
301.01
301.032
301.054
301.076
301.097
301.119
301.14
301.161
301.182
301.203
301.223
301.243
301.263
301.283
301.303
301.322
301.341
301.359
301.378
300.003
300.01
300.017
300.024
300.031
300.039
300.047
300.055
300.064
300.073
300.082
300.092
300.102
300.112
300.123
300.134
300.145
300.157
300.169
300.181
300.194
300.207
300.221
300.234
300.249
300.263
300.278
300.293
300.309
300.325
300.341
300.358
300.375
300.392
300.409
300.427
300.445
300.464
300.483
300.502
300.521
300.54
300.56
300.58
300.6
300.62
300.64
300.661
300.682
300.702
300.723
300.744
300.765
300.786
300.808
300.829
300.85
300.871
300.892
300.913
300.934
300.955
300.976
300.996
301.017
301.037
301.057
301.077
301.097
301.117
301.136
301.156
301.175
301.194
301.212
301.231
301.249
301.267
301.284
301.302
301.319
300.003
300.01
300.017
300.024
300.031
300.039
300.047
300.055
300.063
300.072
300.082
300.091
300.101
300.111
300.122
300.132
300.144
300.155
300.167
300.179
300.192
300.205
300.218
300.232
300.245
300.26
300.274
300.289
300.304
300.32
300.336
300.352
300.368
300.385
300.402
300.419
300.437
300.455
300.473
300.491
300.51
300.528
300.547
300.566
300.585
300.605
300.624
300.644
300.664
300.683
300.703
300.723
300.743
300.763
300.783
300.803
300.823
300.843
300.862
300.882
300.902
300.921
300.941
300.96
300.98
300.999
301.017
301.036
301.055
301.073
301.091
301.109
301.127
301.145
301.162
301.179
301.196
301.213
301.229
301.246
301.262
300.003
300.01
300.016
300.023
300.031
300.038
300.046
300.054
300.063
300.072
300.081
300.09
300.1
300.11
300.12
300.131
300.142
300.153
300.165
300.177
300.189
300.202
300.215
300.228
300.242
300.256
300.27
300.285
300.299
300.315
300.33
300.346
300.362
300.378
300.394
300.411
300.428
300.445
300.463
300.48
300.498
300.516
300.534
300.552
300.571
300.589
300.608
300.626
300.645
300.664
300.682
300.701
300.72
300.739
300.758
300.777
300.795
300.814
300.833
300.851
300.87
300.888
300.907
300.925
300.943
300.961
300.978
300.996
301.013
301.03
301.047
301.064
301.081
301.097
301.113
301.129
301.145
301.161
301.176
301.191
301.206
300.003
300.01
300.016
300.023
300.03
300.038
300.046
300.054
300.062
300.071
300.08
300.089
300.099
300.109
300.119
300.129
300.14
300.151
300.163
300.175
300.187
300.199
300.212
300.225
300.238
300.252
300.266
300.28
300.294
300.309
300.324
300.339
300.355
300.37
300.386
300.402
300.419
300.435
300.452
300.469
300.486
300.503
300.52
300.538
300.555
300.573
300.59
300.608
300.626
300.644
300.662
300.679
300.697
300.715
300.733
300.751
300.768
300.786
300.803
300.821
300.838
300.855
300.873
300.89
300.906
300.923
300.94
300.956
300.972
300.989
301.004
301.02
301.036
301.051
301.066
301.081
301.096
301.111
301.125
301.139
301.153
300.003
300.009
300.016
300.023
300.03
300.037
300.045
300.053
300.061
300.07
300.079
300.088
300.097
300.107
300.117
300.128
300.138
300.149
300.16
300.172
300.184
300.196
300.208
300.221
300.234
300.247
300.261
300.275
300.289
300.303
300.317
300.332
300.347
300.362
300.378
300.393
300.409
300.425
300.441
300.457
300.473
300.49
300.506
300.523
300.54
300.556
300.573
300.59
300.607
300.624
300.641
300.658
300.674
300.691
300.708
300.725
300.741
300.758
300.775
300.791
300.807
300.823
300.839
300.855
300.871
300.887
300.902
300.918
300.933
300.948
300.963
300.978
300.992
301.007
301.021
301.035
301.049
301.062
301.076
301.089
301.102
300.003
300.009
300.016
300.023
300.03
300.037
300.045
300.052
300.061
300.069
300.078
300.087
300.096
300.106
300.115
300.126
300.136
300.147
300.158
300.169
300.181
300.193
300.205
300.217
300.23
300.243
300.256
300.269
300.283
300.297
300.311
300.325
300.339
300.354
300.369
300.384
300.399
300.414
300.43
300.445
300.461
300.476
300.492
300.508
300.524
300.54
300.556
300.572
300.588
300.604
300.62
300.636
300.652
300.668
300.684
300.699
300.715
300.731
300.746
300.762
300.777
300.792
300.807
300.822
300.837
300.852
300.867
300.881
300.895
300.909
300.923
300.937
300.951
300.964
300.978
300.991
301.004
301.016
301.029
301.041
301.054
300.003
300.009
300.016
300.022
300.029
300.036
300.044
300.052
300.06
300.068
300.077
300.085
300.095
300.104
300.114
300.124
300.134
300.144
300.155
300.166
300.178
300.189
300.201
300.213
300.225
300.238
300.251
300.264
300.277
300.29
300.304
300.318
300.332
300.346
300.36
300.374
300.389
300.404
300.418
300.433
300.448
300.463
300.478
300.493
300.509
300.524
300.539
300.554
300.569
300.585
300.6
300.615
300.63
300.645
300.66
300.675
300.69
300.705
300.719
300.734
300.748
300.763
300.777
300.791
300.805
300.819
300.832
300.846
300.859
300.873
300.886
300.899
300.912
300.924
300.937
300.949
300.961
300.973
300.985
300.997
301.008
300.003
300.009
300.015
300.022
300.029
300.036
300.043
300.051
300.059
300.067
300.075
300.084
300.093
300.102
300.112
300.122
300.132
300.142
300.152
300.163
300.174
300.186
300.197
300.209
300.221
300.233
300.246
300.258
300.271
300.284
300.297
300.31
300.324
300.337
300.351
300.365
300.379
300.393
300.407
300.422
300.436
300.45
300.465
300.479
300.494
300.508
300.523
300.537
300.551
300.566
300.58
300.595
300.609
300.623
300.637
300.652
300.666
300.68
300.693
300.707
300.721
300.734
300.748
300.761
300.774
300.787
300.8
300.813
300.826
300.838
300.851
300.863
300.875
300.887
300.899
300.91
300.922
300.933
300.944
300.955
300.966
300.003
300.009
300.015
300.022
300.028
300.035
300.043
300.05
300.058
300.066
300.074
300.083
300.092
300.101
300.11
300.119
300.129
300.139
300.15
300.16
300.171
300.182
300.193
300.205
300.216
300.228
300.24
300.253
300.265
300.278
300.29
300.303
300.316
300.329
300.343
300.356
300.369
300.383
300.397
300.41
300.424
300.438
300.451
300.465
300.479
300.493
300.507
300.521
300.534
300.548
300.562
300.576
300.589
300.603
300.616
300.63
300.643
300.656
300.669
300.682
300.695
300.708
300.721
300.734
300.746
300.758
300.771
300.783
300.795
300.806
300.818
300.83
300.841
300.852
300.864
300.874
300.885
300.896
300.907
300.917
300.927
300.003
300.009
300.015
300.021
300.028
300.035
300.042
300.049
300.057
300.065
300.073
300.081
300.09
300.099
300.108
300.117
300.127
300.137
300.147
300.157
300.168
300.179
300.19
300.201
300.212
300.224
300.235
300.247
300.259
300.271
300.284
300.296
300.309
300.322
300.334
300.347
300.36
300.373
300.386
300.4
300.413
300.426
300.439
300.452
300.466
300.479
300.492
300.505
300.519
300.532
300.545
300.558
300.571
300.584
300.597
300.609
300.622
300.635
300.647
300.66
300.672
300.684
300.696
300.708
300.72
300.732
300.744
300.755
300.766
300.778
300.789
300.8
300.81
300.821
300.832
300.842
300.852
300.863
300.873
300.882
300.892
300.003
300.009
300.015
300.021
300.028
300.034
300.041
300.049
300.056
300.064
300.072
300.08
300.089
300.097
300.106
300.115
300.125
300.135
300.144
300.155
300.165
300.175
300.186
300.197
300.208
300.219
300.231
300.242
300.254
300.266
300.278
300.29
300.302
300.314
300.327
300.339
300.352
300.364
300.377
300.39
300.402
300.415
300.428
300.441
300.453
300.466
300.479
300.492
300.504
300.517
300.529
300.542
300.554
300.567
300.579
300.591
300.603
300.616
300.628
300.639
300.651
300.663
300.674
300.686
300.697
300.708
300.719
300.73
300.741
300.752
300.763
300.773
300.783
300.794
300.804
300.814
300.823
300.833
300.843
300.852
300.861
300.003
300.009
300.014
300.021
300.027
300.034
300.041
300.048
300.055
300.063
300.071
300.079
300.087
300.096
300.105
300.114
300.123
300.132
300.142
300.152
300.162
300.172
300.183
300.193
300.204
300.215
300.226
300.238
300.249
300.261
300.272
300.284
300.296
300.308
300.32
300.332
300.344
300.356
300.369
300.381
300.393
300.406
300.418
300.43
300.443
300.455
300.467
300.479
300.492
300.504
300.516
300.528
300.54
300.552
300.564
300.576
300.587
300.599
300.61
300.622
300.633
300.644
300.655
300.666
300.677
300.688
300.699
300.709
300.72
300.73
300.74
300.75
300.76
300.77
300.779
300.789
300.798
300.808
300.817
300.826
300.835
300.003
300.008
300.014
300.02
300.027
300.033
300.04
300.047
300.054
300.062
300.07
300.078
300.086
300.094
300.103
300.112
300.121
300.13
300.14
300.15
300.16
300.17
300.18
300.19
300.201
300.212
300.223
300.234
300.245
300.256
300.267
300.279
300.291
300.302
300.314
300.326
300.338
300.35
300.361
300.373
300.385
300.397
300.409
300.421
300.433
300.445
300.457
300.469
300.481
300.493
300.505
300.516
300.528
300.54
300.551
300.562
300.574
300.585
300.596
300.607
300.618
300.629
300.64
300.65
300.661
300.671
300.682
300.692
300.702
300.712
300.721
300.731
300.741
300.75
300.76
300.769
300.778
300.787
300.796
300.804
300.813
300.003
300.008
300.014
300.02
300.026
300.033
300.04
300.047
300.054
300.061
300.069
300.077
300.085
300.093
300.102
300.111
300.12
300.129
300.138
300.148
300.157
300.167
300.178
300.188
300.198
300.209
300.22
300.23
300.241
300.253
300.264
300.275
300.286
300.298
300.309
300.321
300.333
300.344
300.356
300.368
300.379
300.391
300.403
300.415
300.426
300.438
300.45
300.461
300.473
300.484
300.496
300.507
300.519
300.53
300.541
300.552
300.563
300.574
300.585
300.596
300.607
300.617
300.628
300.638
300.648
300.658
300.668
300.678
300.688
300.698
300.707
300.717
300.726
300.735
300.744
300.753
300.762
300.771
300.779
300.788
300.796
300.003
300.008
300.014
300.02
300.026
300.033
300.039
300.046
300.053
300.061
300.068
300.076
300.084
300.092
300.101
300.11
300.118
300.128
300.137
300.146
300.156
300.166
300.176
300.186
300.196
300.207
300.217
300.228
300.239
300.25
300.261
300.272
300.283
300.295
300.306
300.317
300.329
300.34
300.352
300.364
300.375
300.387
300.398
300.41
300.421
300.433
300.444
300.456
300.467
300.478
300.49
300.501
300.512
300.523
300.534
300.545
300.556
300.567
300.578
300.588
300.599
300.609
300.619
300.629
300.639
300.649
300.659
300.669
300.679
300.688
300.698
300.707
300.716
300.725
300.734
300.743
300.751
300.76
300.768
300.777
300.785
300.003
300.008
300.014
300.02
300.026
300.032
300.039
300.046
300.053
300.06
300.068
300.076
300.084
300.092
300.1
300.109
300.118
300.127
300.136
300.146
300.155
300.165
300.175
300.185
300.195
300.206
300.216
300.227
300.238
300.249
300.26
300.271
300.282
300.293
300.304
300.316
300.327
300.339
300.35
300.361
300.373
300.384
300.396
300.407
300.419
300.43
300.442
300.453
300.464
300.475
300.487
300.498
300.509
300.52
300.531
300.542
300.552
300.563
300.574
300.584
300.595
300.605
300.615
300.625
300.635
300.645
300.655
300.664
300.674
300.683
300.693
300.702
300.711
300.72
300.729
300.737
300.746
300.754
300.763
300.771
300.779
303.028
303.157
303.235
303.307
303.371
303.423
303.458
303.497
303.537
303.575
303.606
303.64
303.675
303.709
303.743
303.776
303.808
303.835
303.865
303.895
303.924
303.953
303.983
304.012
304.041
304.07
304.098
304.126
304.154
304.181
304.208
304.235
304.261
304.288
304.314
304.339
304.365
304.391
304.416
304.441
304.466
304.49
304.515
304.543
304.569
304.594
304.618
304.643
304.669
304.695
304.719
304.742
304.766
304.791
304.816
304.842
304.868
304.894
304.92
304.943
304.964
304.987
305.011
305.035
305.06
305.085
305.109
305.133
305.158
305.182
305.206
305.229
305.252
305.276
305.299
305.322
305.345
305.368
305.39
305.415
305.443
305.468
305.49
305.513
305.534
305.554
305.578
305.604
305.628
305.649
305.669
305.692
305.717
305.739
305.762
305.788
305.811
305.832
305.856
305.879
305.898
305.921
305.94
305.962
305.986
306.01
306.032
306.05
306.071
306.088
306.109
306.13
306.153
306.176
306.196
306.211
306.23
306.251
306.271
306.289
306.302
306.318
306.336
306.353
306.369
306.38
306.393
306.407
306.42
306.432
306.444
306.454
306.463
306.47
306.477
306.482
306.485
306.487
306.487
306.486
306.483
306.478
306.471
306.461
306.45
306.436
306.419
306.4
306.377
306.349
306.314
306.278
306.241
306.199
306.15
306.095
306.035
305.932
305.839
305.721
305.569
302.927
303.041
303.129
303.205
303.27
303.325
303.371
303.415
303.457
303.497
303.533
303.569
303.605
303.641
303.675
303.709
303.741
303.772
303.802
303.833
303.863
303.893
303.923
303.953
303.982
304.012
304.04
304.069
304.097
304.124
304.152
304.179
304.206
304.233
304.26
304.286
304.312
304.338
304.363
304.389
304.414
304.439
304.465
304.491
304.518
304.543
304.568
304.593
304.619
304.645
304.669
304.693
304.718
304.743
304.768
304.794
304.82
304.846
304.871
304.895
304.918
304.941
304.965
304.989
305.014
305.039
305.063
305.088
305.113
305.137
305.161
305.185
305.208
305.232
305.255
305.279
305.302
305.326
305.348
305.373
305.4
305.424
305.448
305.471
305.492
305.514
305.538
305.563
305.587
305.609
305.63
305.653
305.677
305.7
305.724
305.748
305.772
305.794
305.817
305.84
305.861
305.883
305.903
305.926
305.949
305.973
305.995
306.014
306.034
306.053
306.074
306.096
306.118
306.14
306.16
306.177
306.196
306.217
306.237
306.254
306.269
306.286
306.303
306.32
306.335
306.348
306.361
306.375
306.388
306.401
306.412
306.422
306.431
306.439
306.446
306.451
306.454
306.456
306.457
306.455
306.452
306.447
306.44
306.431
306.42
306.406
306.389
306.369
306.346
306.318
306.284
306.248
306.209
306.166
306.116
306.059
305.994
305.895
305.796
305.673
305.506
302.845
302.944
303.03
303.106
303.172
303.231
303.282
303.33
303.374
303.416
303.456
303.494
303.531
303.568
303.604
303.638
303.671
303.704
303.735
303.767
303.798
303.829
303.859
303.89
303.92
303.949
303.979
304.008
304.036
304.064
304.092
304.12
304.148
304.175
304.202
304.228
304.255
304.281
304.307
304.333
304.359
304.384
304.41
304.437