/*--------------------------------*- C++ -*----------------------------------*\
| =========                 |                                                 |
| \\      /  F ield         | OpenFOAM: The Open Source CFD Toolbox           |
|  \\    /   O peration     | Version:  2106                                  |
|   \\  /    A nd           | Website:  www.openfoam.com                      |
|    \\/     M anipulation  |                                                 |
\*---------------------------------------------------------------------------*/
FoamFile
{
    version     2.0;
    format      ascii;
    arch        "LSB;label=32;scalar=64";
    class       volVectorField;
    location    "6.6";
    object      U;
}
// * * * * * * * * * * * * * * * * * * * * * * * * * * * * * * * * * * * * * //

dimensions      [0 1 -1 0 0 0 0];

internalField   nonuniform List<vector> 
12013
(
(0.100037 -1.02734e-05 0)
(0.100188 -1.89955e-05 0)
(0.100432 -2.7091e-05 0)
(0.100748 -3.45654e-05 0)
(0.101129 -4.15967e-05 0)
(0.101569 -4.82859e-05 0)
(0.102063 -5.46974e-05 0)
(0.102607 -6.08821e-05 0)
(0.103195 -6.68801e-05 0)
(0.103824 -7.2721e-05 0)
(0.104493 -7.84292e-05 0)
(0.105196 -8.4024e-05 0)
(0.105933 -8.95217e-05 0)
(0.1067 -9.49346e-05 0)
(0.107496 -0.000100273 0)
(0.108319 -0.000105546 0)
(0.109166 -0.000110759 0)
(0.110036 -0.000115917 0)
(0.110927 -0.000121024 0)
(0.111839 -0.000126082 0)
(0.112768 -0.000131093 0)
(0.113715 -0.000136056 0)
(0.114677 -0.000140973 0)
(0.115653 -0.00014584 0)
(0.116643 -0.000150657 0)
(0.117644 -0.000155421 0)
(0.118656 -0.000160128 0)
(0.119677 -0.000164775 0)
(0.120707 -0.000169355 0)
(0.121743 -0.000173865 0)
(0.122786 -0.000178299 0)
(0.123834 -0.000182648 0)
(0.124886 -0.000186907 0)
(0.12594 -0.000191066 0)
(0.126996 -0.000195116 0)
(0.128053 -0.000199048 0)
(0.12911 -0.00020285 0)
(0.130165 -0.00020651 0)
(0.131218 -0.000210015 0)
(0.132267 -0.00021335 0)
(0.133311 -0.000216498 0)
(0.13435 -0.000219442 0)
(0.135382 -0.000222161 0)
(0.136405 -0.000224633 0)
(0.137419 -0.000226832 0)
(0.138423 -0.000228731 0)
(0.139415 -0.000230297 0)
(0.140393 -0.000231495 0)
(0.141358 -0.000232284 0)
(0.142306 -0.000232618 0)
(0.143236 -0.000232443 0)
(0.144147 -0.000231699 0)
(0.145037 -0.000230314 0)
(0.145903 -0.000228206 0)
(0.146745 -0.000225279 0)
(0.147559 -0.000221419 0)
(0.148342 -0.000216493 0)
(0.149092 -0.000210338 0)
(0.149806 -0.000202764 0)
(0.150479 -0.000193536 0)
(0.151108 -0.000182368 0)
(0.151687 -0.000168908 0)
(0.152211 -0.000152716 0)
(0.152672 -0.000133238 0)
(0.153062 -0.000109764 0)
(0.153373 -8.13784e-05 0)
(0.15359 -4.6878e-05 0)
(0.153699 -4.65517e-06 0)
(0.153682 4.74884e-05 0)
(0.153513 0.000112685 0)
(0.15316 0.000195398 0)
(0.15258 0.000302195 0)
(0.151714 0.000443038 0)
(0.150478 0.000633544 0)
(0.14875 0.000899033 0)
(0.146346 0.00128201 0)
(0.142984 0.00185649 0)
(0.138193 0.00275926 0)
(0.131187 0.00428552 0)
(0.12088 0.00730293 0)
(0.109047 0.0158891 0)
(0.100034 -3.13674e-05 0)
(0.100184 -5.8239e-05 0)
(0.100427 -8.31023e-05 0)
(0.100742 -0.000106041 0)
(0.101123 -0.00012762 0)
(0.101562 -0.000148148 0)
(0.102055 -0.000167821 0)
(0.102597 -0.000186798 0)
(0.103185 -0.000205199 0)
(0.103813 -0.000223118 0)
(0.10448 -0.000240628 0)
(0.105183 -0.00025779 0)
(0.105919 -0.000274653 0)
(0.106685 -0.000291254 0)
(0.107479 -0.000307627 0)
(0.108301 -0.000323796 0)
(0.109147 -0.000339781 0)
(0.110015 -0.000355597 0)
(0.110906 -0.000371256 0)
(0.111816 -0.000386763 0)
(0.112744 -0.000402125 0)
(0.113689 -0.000417341 0)
(0.114649 -0.000432411 0)
(0.115624 -0.000447331 0)
(0.116612 -0.000462096 0)
(0.117612 -0.000476695 0)
(0.118622 -0.00049112 0)
(0.119641 -0.000505357 0)
(0.120669 -0.000519393 0)
(0.121704 -0.000533211 0)
(0.122745 -0.000546792 0)
(0.123791 -0.000560116 0)
(0.12484 -0.00057316 0)
(0.125893 -0.000585898 0)
(0.126947 -0.000598303 0)
(0.128002 -0.000610342 0)
(0.129056 -0.000621984 0)
(0.130109 -0.000633189 0)
(0.131159 -0.000643918 0)
(0.132206 -0.000654125 0)
(0.133248 -0.000663759 0)
(0.134284 -0.000672766 0)
(0.135313 -0.000681083 0)
(0.136334 -0.000688641 0)
(0.137345 -0.000695365 0)
(0.138346 -0.000701168 0)
(0.139335 -0.000705952 0)
(0.140311 -0.000709608 0)
(0.141273 -0.000712012 0)
(0.142218 -0.000713023 0)
(0.143146 -0.000712477 0)
(0.144054 -0.000710188 0)
(0.144941 -0.00070594 0)
(0.145805 -0.000699482 0)
(0.146644 -0.00069052 0)
(0.147455 -0.000678711 0)
(0.148237 -0.000663644 0)
(0.148985 -0.000644833 0)
(0.149697 -0.000621692 0)
(0.150369 -0.000593513 0)
(0.150997 -0.000559432 0)
(0.151576 -0.000518382 0)
(0.1521 -0.000469035 0)
(0.152564 -0.000409722 0)
(0.152958 -0.000338316 0)
(0.153274 -0.000252072 0)
(0.1535 -0.000147403 0)
(0.153622 -1.95383e-05 0)
(0.153624 0.000137982 0)
(0.153482 0.000334205 0)
(0.153168 0.000581937 0)
(0.152647 0.00089975 0)
(0.15187 0.00131529 0)
(0.150771 0.00187082 0)
(0.149263 0.00263268 0)
(0.147226 0.00370748 0)
(0.144499 0.00526913 0)
(0.14086 0.00760384 0)
(0.136038 0.011186 0)
(0.130048 0.0167132 0)
(0.12516 0.0245501 0)
(0.100031 -5.3313e-05 0)
(0.10018 -9.98933e-05 0)
(0.10042 -0.000142716 0)
(0.100733 -0.00018221 0)
(0.101112 -0.000219357 0)
(0.101549 -0.000254686 0)
(0.10204 -0.000288539 0)
(0.10258 -0.000321192 0)
(0.103166 -0.000352851 0)
(0.103792 -0.000383676 0)
(0.104457 -0.000413797 0)
(0.105158 -0.000443317 0)
(0.105891 -0.000472318 0)
(0.106655 -0.00050087 0)
(0.107447 -0.000529025 0)
(0.108266 -0.000556828 0)
(0.109109 -0.000584313 0)
(0.109975 -0.000611506 0)
(0.110863 -0.000638425 0)
(0.11177 -0.000665083 0)
(0.112695 -0.000691488 0)
(0.113637 -0.000717641 0)
(0.114595 -0.000743541 0)
(0.115566 -0.00076918 0)
(0.116551 -0.000794548 0)
(0.117547 -0.000819632 0)
(0.118553 -0.000844412 0)
(0.119569 -0.000868869 0)
(0.120593 -0.000892976 0)
(0.121624 -0.000916706 0)
(0.122661 -0.000940027 0)
(0.123703 -0.000962902 0)
(0.124749 -0.000985293 0)
(0.125797 -0.00100716 0)
(0.126847 -0.00102844 0)
(0.127897 -0.0010491 0)
(0.128947 -0.00106907 0)
(0.129995 -0.00108828 0)
(0.13104 -0.00110668 0)
(0.132082 -0.00112417 0)
(0.133119 -0.00114068 0)
(0.13415 -0.00115611 0)
(0.135174 -0.00117035 0)
(0.13619 -0.00118328 0)
(0.137196 -0.00119478 0)
(0.138191 -0.00120469 0)
(0.139175 -0.00121285 0)
(0.140145 -0.00121908 0)
(0.141101 -0.00122315 0)
(0.142041 -0.00122484 0)
(0.142963 -0.00122385 0)
(0.143865 -0.00121988 0)
(0.144747 -0.00121256 0)
(0.145606 -0.00120146 0)
(0.146439 -0.00118609 0)
(0.147245 -0.00116585 0)
(0.148022 -0.00114007 0)
(0.148766 -0.00110792 0)
(0.149474 -0.00106841 0)
(0.150143 -0.00102037 0)
(0.150769 -0.000962343 0)
(0.151347 -0.000892562 0)
(0.151872 -0.00080883 0)
(0.152339 -0.000708396 0)
(0.152739 -0.000587781 0)
(0.153065 -0.000442528 0)
(0.153306 -0.000266858 0)
(0.15345 -5.31815e-05 0)
(0.153484 0.000208623 0)
(0.153388 0.000532407 0)
(0.153142 0.000937386 0)
(0.152719 0.00145064 0)
(0.152086 0.00211103 0)
(0.151206 0.00297525 0)
(0.150035 0.00412712 0)
(0.148527 0.00569122 0)
(0.146651 0.0078509 0)
(0.144411 0.0108663 0)
(0.141918 0.015077 0)
(0.139596 0.0207735 0)
(0.138697 0.0274261 0)
(0.100028 -7.59179e-05 0)
(0.100174 -0.00014384 0)
(0.100412 -0.00020586 0)
(0.100721 -0.000263092 0)
(0.101096 -0.0003169 0)
(0.101531 -0.000368056 0)
(0.102019 -0.000417066 0)
(0.102556 -0.00046433 0)
(0.103138 -0.000510148 0)
(0.103761 -0.000554754 0)
(0.104423 -0.000598335 0)
(0.10512 -0.000641041 0)
(0.10585 -0.000682994 0)
(0.10661 -0.00072429 0)
(0.107398 -0.00076501 0)
(0.108213 -0.000805215 0)
(0.109053 -0.000844956 0)
(0.109915 -0.000884269 0)
(0.110798 -0.000923183 0)
(0.111701 -0.000961715 0)
(0.112621 -0.000999876 0)
(0.113559 -0.00103767 0)
(0.114511 -0.00107509 0)
(0.115478 -0.00111213 0)
(0.116458 -0.00114877 0)
(0.117448 -0.001185 0)
(0.11845 -0.00122078 0)
(0.11946 -0.00125609 0)
(0.120478 -0.00129089 0)
(0.121504 -0.00132514 0)
(0.122535 -0.00135879 0)
(0.12357 -0.00139179 0)
(0.124609 -0.00142409 0)
(0.125651 -0.00145561 0)
(0.126694 -0.0014863 0)
(0.127738 -0.00151607 0)
(0.128781 -0.00154483 0)
(0.129822 -0.00157251 0)
(0.13086 -0.00159899 0)
(0.131894 -0.00162416 0)
(0.132924 -0.0016479 0)
(0.133947 -0.00167008 0)
(0.134963 -0.00169053 0)
(0.135971 -0.00170909 0)
(0.136969 -0.00172557 0)
(0.137956 -0.00173977 0)
(0.138931 -0.00175143 0)
(0.139894 -0.0017603 0)
(0.140841 -0.00176607 0)
(0.141772 -0.00176839 0)
(0.142686 -0.00176687 0)
(0.14358 -0.00176106 0)
(0.144454 -0.00175044 0)
(0.145304 -0.00173441 0)
(0.14613 -0.00171225 0)
(0.146929 -0.00168316 0)
(0.147699 -0.00164615 0)
(0.148437 -0.00160009 0)
(0.14914 -0.0015436 0)
(0.149805 -0.00147503 0)
(0.150428 -0.00139238 0)
(0.151005 -0.00129323 0)
(0.151532 -0.00117458 0)
(0.152004 -0.0010327 0)
(0.152414 -0.000862935 0)
(0.152754 -0.000659366 0)
(0.153018 -0.000414434 0)
(0.153196 -0.000118366 0)
(0.153276 0.000241556 0)
(0.153247 0.000682261 0)
(0.153095 0.00122651 0)
(0.152806 0.00190519 0)
(0.152364 0.00276047 0)
(0.151757 0.00385019 0)
(0.150983 0.00525347 0)
(0.150052 0.00707666 0)
(0.149014 0.00945652 0)
(0.147979 0.012551 0)
(0.147168 0.0164942 0)
(0.14696 0.0212439 0)
(0.147906 0.0261478 0)
(0.100025 -9.91875e-05 0)
(0.100168 -0.000189992 0)
(0.100401 -0.000272491 0)
(0.100707 -0.000348705 0)
(0.101078 -0.00042033 0)
(0.101508 -0.0004884 0)
(0.101992 -0.000553601 0)
(0.102525 -0.000616462 0)
(0.103102 -0.000677388 0)
(0.103721 -0.000736693 0)
(0.104378 -0.000794625 0)
(0.10507 -0.000851385 0)
(0.105795 -0.000907134 0)
(0.10655 -0.000962003 0)
(0.107334 -0.0010161 0)
(0.108143 -0.0010695 0)
(0.108977 -0.00112228 0)
(0.109834 -0.00117448 0)
(0.110711 -0.00122614 0)
(0.111608 -0.00127729 0)
(0.112522 -0.00132794 0)
(0.113453 -0.00137809 0)
(0.114399 -0.00142774 0)
(0.115359 -0.00147687 0)
(0.116332 -0.00152547 0)
(0.117316 -0.0015735 0)
(0.11831 -0.00162094 0)
(0.119312 -0.00166774 0)
(0.120323 -0.00171385 0)
(0.12134 -0.00175922 0)
(0.122363 -0.00180378 0)
(0.12339 -0.00184748 0)
(0.124421 -0.00189022 0)
(0.125454 -0.00193193 0)
(0.126488 -0.00197251 0)
(0.127523 -0.00201187 0)
(0.128556 -0.00204989 0)
(0.129588 -0.00208645 0)
(0.130616 -0.00212141 0)
(0.131641 -0.00215462 0)
(0.13266 -0.00218593 0)
(0.133673 -0.00221514 0)
(0.134679 -0.00224206 0)
(0.135676 -0.00226647 0)
(0.136663 -0.00228812 0)
(0.13764 -0.00230672 0)
(0.138604 -0.00232198 0)
(0.139555 -0.00233353 0)
(0.140492 -0.00234098 0)
(0.141412 -0.00234388 0)
(0.142315 -0.00234171 0)
(0.143199 -0.0023339 0)
(0.144062 -0.00231977 0)
(0.144902 -0.00229854 0)
(0.145718 -0.0022693 0)
(0.146508 -0.002231 0)
(0.147269 -0.00218241 0)
(0.148 -0.00212206 0)
(0.148696 -0.00204824 0)
(0.149357 -0.00195886 0)
(0.149978 -0.00185146 0)
(0.150556 -0.00172301 0)
(0.151086 -0.00156986 0)
(0.151566 -0.0013875 0)
(0.151989 -0.00117035 0)
(0.152352 -0.000911473 0)
(0.152647 -0.000602117 0)
(0.152869 -0.00023124 0)
(0.153011 0.000215135 0)
(0.153066 0.000754925 0)
(0.15303 0.00141127 0)
(0.152899 0.00221412 0)
(0.152673 0.00320201 0)
(0.15236 0.00442403 0)
(0.151983 0.0059413 0)
(0.151585 0.00782649 0)
(0.151244 0.010158 0)
(0.151089 0.0130012 0)
(0.151309 0.0163628 0)
(0.152151 0.0200937 0)
(0.153834 0.0237203 0)
(0.100022 -0.00012313 0)
(0.100162 -0.000238269 0)
(0.10039 -0.000342556 0)
(0.100691 -0.000439032 0)
(0.101056 -0.00052969 0)
(0.101481 -0.000615818 0)
(0.10196 -0.000698293 0)
(0.102487 -0.00077779 0)
(0.103059 -0.000854821 0)
(0.103672 -0.000929785 0)
(0.104323 -0.001003 0)
(0.105009 -0.00107472 0)
(0.105728 -0.00114514 0)
(0.106476 -0.00121444 0)
(0.107253 -0.00128275 0)
(0.108056 -0.00135018 0)
(0.108883 -0.0014168 0)
(0.109732 -0.00148268 0)
(0.110602 -0.00154786 0)
(0.111491 -0.00161239 0)
(0.112397 -0.00167627 0)
(0.11332 -0.0017395 0)
(0.114258 -0.00180209 0)
(0.115209 -0.00186402 0)
(0.116173 -0.00192526 0)
(0.117148 -0.00198577 0)
(0.118132 -0.00204551 0)
(0.119126 -0.00210443 0)
(0.120127 -0.00216247 0)
(0.121134 -0.00221955 0)
(0.122146 -0.00227561 0)
(0.123163 -0.00233055 0)
(0.124183 -0.00238427 0)
(0.125205 -0.00243668 0)
(0.126228 -0.00248764 0)
(0.127251 -0.00253704 0)
(0.128273 -0.00258474 0)
(0.129292 -0.00263058 0)
(0.130309 -0.00267438 0)
(0.131321 -0.00271597 0)
(0.132327 -0.00275514 0)
(0.133328 -0.00279165 0)
(0.13432 -0.00282527 0)
(0.135304 -0.00285572 0)
(0.136279 -0.00288267 0)
(0.137242 -0.00290579 0)
(0.138193 -0.0029247 0)
(0.139131 -0.00293895 0)
(0.140054 -0.00294806 0)
(0.140961 -0.00295147 0)
(0.141851 -0.00294856 0)
(0.142721 -0.00293861 0)
(0.143572 -0.00292079 0)
(0.1444 -0.00289417 0)
(0.145205 -0.00285765 0)
(0.145984 -0.00280997 0)
(0.146736 -0.00274966 0)
(0.147458 -0.00267497 0)
(0.148148 -0.00258387 0)
(0.148805 -0.00247396 0)
(0.149424 -0.00234234 0)
(0.150003 -0.00218559 0)
(0.15054 -0.00199955 0)
(0.151031 -0.00177921 0)
(0.151474 -0.00151846 0)
(0.151863 -0.00120983 0)
(0.152198 -0.000844133 0)
(0.152473 -0.000410074 0)
(0.152688 0.000106255 0)
(0.152841 0.000721493 0)
(0.152933 0.00145658 0)
(0.152971 0.00233697 0)
(0.152964 0.00339317 0)
(0.152934 0.00466069 0)
(0.152913 0.00617891 0)
(0.152954 0.00798753 0)
(0.153134 0.0101185 0)
(0.153556 0.01258 0)
(0.154352 0.0153273 0)
(0.155657 0.0182176 0)
(0.157544 0.020958 0)
(0.10002 -0.000147755 0)
(0.100156 -0.000288606 0)
(0.100379 -0.000416001 0)
(0.100673 -0.00053404 0)
(0.101033 -0.000644985 0)
(0.101451 -0.000750363 0)
(0.101923 -0.000851247 0)
(0.102443 -0.000948463 0)
(0.103008 -0.00104264 0)
(0.103614 -0.00113426 0)
(0.104258 -0.00122373 0)
(0.104937 -0.00131134 0)
(0.105647 -0.00139736 0)
(0.106388 -0.00148198 0)
(0.107157 -0.00156537 0)
(0.107951 -0.00164766 0)
(0.108769 -0.00172895 0)
(0.10961 -0.00180932 0)
(0.11047 -0.00188883 0)
(0.11135 -0.0019675 0)
(0.112247 -0.00204537 0)
(0.11316 -0.00212243 0)
(0.114087 -0.00219868 0)
(0.115028 -0.00227411 0)
(0.115981 -0.00234867 0)
(0.116945 -0.00242233 0)
(0.117918 -0.00249502 0)
(0.1189 -0.00256669 0)
(0.119889 -0.00263727 0)
(0.120884 -0.00270665 0)
(0.121884 -0.00277476 0)
(0.122888 -0.00284148 0)
(0.123895 -0.0029067 0)
(0.124904 -0.00297028 0)
(0.125913 -0.00303209 0)
(0.126922 -0.00309197 0)
(0.12793 -0.00314974 0)
(0.128935 -0.00320522 0)
(0.129937 -0.00325821 0)
(0.130934 -0.00330847 0)
(0.131926 -0.00335577 0)
(0.132911 -0.00339982 0)
(0.133888 -0.00344033 0)
(0.134857 -0.00347696 0)
(0.135816 -0.00350934 0)
(0.136763 -0.00353706 0)
(0.137699 -0.00355966 0)
(0.138621 -0.00357663 0)
(0.139528 -0.00358737 0)
(0.14042 -0.00359125 0)
(0.141294 -0.00358753 0)
(0.14215 -0.00357535 0)
(0.142987 -0.00355378 0)
(0.143802 -0.00352172 0)
(0.144594 -0.00347791 0)
(0.145361 -0.0034209 0)
(0.146103 -0.00334902 0)
(0.146816 -0.00326033 0)
(0.1475 -0.00315254 0)
(0.148152 -0.003023 0)
(0.148771 -0.00286858 0)
(0.149354 -0.00268557 0)
(0.1499 -0.00246958 0)
(0.150406 -0.00221541 0)
(0.150871 -0.00191685 0)
(0.151294 -0.00156646 0)
(0.151674 -0.00115541 0)
(0.15201 -0.000673139 0)
(0.152304 -0.000107144 0)
(0.15256 0.000556902 0)
(0.152783 0.00133557 0)
(0.152986 0.00224792 0)
(0.153183 0.00331488 0)
(0.1534 0.00455812 0)
(0.153671 0.0059979 0)
(0.154044 0.00764916 0)
(0.15458 0.00951496 0)
(0.15535 0.0115764 0)
(0.156433 0.0137783 0)
(0.157894 0.0160132 0)
(0.159748 0.0181109 0)
(0.100017 -0.000173086 0)
(0.10015 -0.000340956 0)
(0.100367 -0.00049278 0)
(0.100655 -0.000633688 0)
(0.101007 -0.0007662 0)
(0.101418 -0.000892055 0)
(0.101882 -0.00101252 0)
(0.102395 -0.00112858 0)
(0.102952 -0.00124098 0)
(0.103549 -0.00135031 0)
(0.104184 -0.00145703 0)
(0.104854 -0.00156151 0)
(0.105555 -0.00166406 0)
(0.106287 -0.00176492 0)
(0.107046 -0.00186428 0)
(0.10783 -0.00196231 0)
(0.108638 -0.00205912 0)
(0.109467 -0.0021548 0)
(0.110317 -0.00224942 0)
(0.111186 -0.00234303 0)
(0.112071 -0.00243565 0)
(0.112972 -0.00252729 0)
(0.113888 -0.00261793 0)
(0.114816 -0.00270756 0)
(0.115757 -0.00279613 0)
(0.116707 -0.00288359 0)
(0.117667 -0.00296988 0)
(0.118635 -0.00305492 0)
(0.11961 -0.00313862 0)
(0.120591 -0.00322088 0)
(0.121576 -0.00330159 0)
(0.122565 -0.00338061 0)
(0.123557 -0.00345781 0)
(0.12455 -0.00353303 0)
(0.125544 -0.00360611 0)
(0.126537 -0.00367686 0)
(0.127528 -0.00374508 0)
(0.128517 -0.00381055 0)
(0.129502 -0.00387302 0)
(0.130482 -0.00393223 0)
(0.131456 -0.00398789 0)
(0.132424 -0.00403968 0)
(0.133383 -0.00408724 0)
(0.134334 -0.00413019 0)
(0.135275 -0.0041681 0)
(0.136205 -0.00420049 0)
(0.137122 -0.00422683 0)
(0.138027 -0.00424652 0)
(0.138917 -0.00425891 0)
(0.139791 -0.00426326 0)
(0.140649 -0.00425871 0)
(0.141488 -0.00424434 0)
(0.142309 -0.00421907 0)
(0.143109 -0.00418168 0)
(0.143887 -0.00413079 0)
(0.144642 -0.00406481 0)
(0.145373 -0.00398193 0)
(0.146078 -0.00388005 0)
(0.146756 -0.00375676 0)
(0.147405 -0.00360928 0)
(0.148025 -0.00343436 0)
(0.148614 -0.00322825 0)
(0.14917 -0.0029866 0)
(0.149695 -0.00270432 0)
(0.150186 -0.00237553 0)
(0.150646 -0.0019934 0)
(0.151074 -0.00155006 0)
(0.151473 -0.0010365 0)
(0.151848 -0.00044253 0)
(0.152205 0.000243351 0)
(0.152553 0.00103239 0)
(0.152904 0.00193698 0)
(0.153277 0.00296916 0)
(0.153695 0.00413918 0)
(0.154188 0.00545351 0)
(0.154793 0.00691178 0)
(0.155552 0.00850275 0)
(0.15651 0.0101993 0)
(0.157709 0.0119529 0)
(0.159176 0.0136899 0)
(0.160905 0.0153143 0)
(0.100013 -0.000199157 0)
(0.100144 -0.000395289 0)
(0.100355 -0.000572856 0)
(0.100635 -0.000737931 0)
(0.10098 -0.000893302 0)
(0.101383 -0.00104088 0)
(0.101838 -0.00118214 0)
(0.102342 -0.0013182 0)
(0.102889 -0.00144993 0)
(0.103477 -0.00157803 0)
(0.104102 -0.00170304 0)
(0.104761 -0.00182539 0)
(0.105452 -0.00194544 0)
(0.106172 -0.00206347 0)
(0.10692 -0.00217972 0)
(0.107692 -0.00229436 0)
(0.108488 -0.00240755 0)
(0.109306 -0.00251938 0)
(0.110143 -0.00262994 0)
(0.110998 -0.00273927 0)
(0.111871 -0.00284741 0)
(0.112758 -0.00295437 0)
(0.11366 -0.00306012 0)
(0.114574 -0.00316465 0)
(0.115499 -0.00326791 0)
(0.116435 -0.00336983 0)
(0.11738 -0.00347034 0)
(0.118332 -0.00356935 0)
(0.119291 -0.00366676 0)
(0.120255 -0.00376244 0)
(0.121224 -0.00385626 0)
(0.122196 -0.00394808 0)
(0.12317 -0.00403773 0)
(0.124145 -0.00412502 0)
(0.125121 -0.00420978 0)
(0.126095 -0.00429177 0)
(0.127068 -0.00437077 0)
(0.128038 -0.00444653 0)
(0.129003 -0.00451875 0)
(0.129964 -0.00458715 0)
(0.130919 -0.00465137 0)
(0.131867 -0.00471107 0)
(0.132807 -0.00476583 0)
(0.133737 -0.00481522 0)
(0.134658 -0.00485875 0)
(0.135568 -0.00489587 0)
(0.136466 -0.00492601 0)
(0.137351 -0.00494849 0)
(0.138221 -0.00496257 0)
(0.139077 -0.00496745 0)
(0.139916 -0.00496219 0)
(0.140738 -0.00494577 0)
(0.141542 -0.00491704 0)
(0.142326 -0.00487468 0)
(0.14309 -0.00481722 0)
(0.143832 -0.00474299 0)
(0.144552 -0.00465011 0)
(0.145249 -0.00453642 0)
(0.145921 -0.00439947 0)
(0.146568 -0.0042365 0)
(0.14719 -0.00404433 0)
(0.147785 -0.00381936 0)
(0.148355 -0.00355751 0)
(0.1489 -0.00325415 0)
(0.149419 -0.00290409 0)
(0.149917 -0.00250149 0)
(0.150394 -0.00203993 0)
(0.150855 -0.00151242 0)
(0.151306 -0.000911456 0)
(0.151755 -0.000229195 0)
(0.152212 0.000542061 0)
(0.152689 0.00140796 0)
(0.153203 0.00237355 0)
(0.153773 0.00344112 0)
(0.154422 0.00460874 0)
(0.155176 0.00586841 0)
(0.156062 0.00720409 0)
(0.157105 0.00858975 0)
(0.158325 0.00998812 0)
(0.159729 0.0113513 0)
(0.161308 0.0126249 0)
(0.10001 -0.000226005 0)
(0.100138 -0.000451587 0)
(0.100343 -0.000656195 0)
(0.100616 -0.000846724 0)
(0.100952 -0.00102624 0)
(0.101345 -0.00119682 0)
(0.101791 -0.00136007 0)
(0.102284 -0.00151731 0)
(0.102821 -0.00166952 0)
(0.103398 -0.00181748 0)
(0.104011 -0.00196183 0)
(0.104659 -0.00210307 0)
(0.105338 -0.0022416 0)
(0.106046 -0.00237776 0)
(0.10678 -0.00251182 0)
(0.10754 -0.00264398 0)
(0.108322 -0.00277441 0)
(0.109125 -0.00290324 0)
(0.109948 -0.00303054 0)
(0.110789 -0.00315639 0)
(0.111646 -0.00328082 0)
(0.112518 -0.00340383 0)
(0.113404 -0.00352542 0)
(0.114302 -0.00364554 0)
(0.11521 -0.00376415 0)
(0.116129 -0.00388116 0)
(0.117056 -0.00399651 0)
(0.11799 -0.00411007 0)
(0.118931 -0.00422173 0)
(0.119877 -0.00433136 0)
(0.120826 -0.00443879 0)
(0.121779 -0.00454386 0)
(0.122734 -0.00464639 0)
(0.123689 -0.00474616 0)
(0.124644 -0.00484295 0)
(0.125598 -0.00493653 0)
(0.12655 -0.00502662 0)
(0.127499 -0.00511293 0)
(0.128443 -0.00519515 0)
(0.129382 -0.00527293 0)
(0.130316 -0.00534591 0)
(0.131242 -0.00541366 0)
(0.13216 -0.00547575 0)
(0.133068 -0.00553169 0)
(0.133967 -0.00558093 0)
(0.134856 -0.00562288 0)
(0.135732 -0.0056569 0)
(0.136595 -0.00568226 0)
(0.137445 -0.00569817 0)
(0.13828 -0.00570375 0)
(0.1391 -0.00569802 0)
(0.139903 -0.00567989 0)
(0.140689 -0.00564814 0)
(0.141456 -0.00560144 0)
(0.142205 -0.00553826 0)
(0.142934 -0.00545691 0)
(0.143643 -0.00535552 0)
(0.144332 -0.00523196 0)
(0.144999 -0.00508387 0)
(0.145645 -0.00490862 0)
(0.146269 -0.00470328 0)
(0.146873 -0.00446458 0)
(0.147456 -0.00418894 0)
(0.148021 -0.00387242 0)
(0.148569 -0.00351076 0)
(0.149103 -0.0030994 0)
(0.149626 -0.00263357 0)
(0.150144 -0.00210839 0)
(0.150663 -0.00151909 0)
(0.15119 -0.000861153 0)
(0.151736 -0.000130513 0)
(0.152312 0.000675264 0)
(0.15293 0.00155524 0)
(0.153606 0.00250697 0)
(0.154356 0.00352445 0)
(0.155196 0.00459708 0)
(0.156141 0.00570906 0)
(0.157205 0.00683896 0)
(0.158395 0.00796004 0)
(0.159711 0.00904174 0)
(0.161143 0.010053 0)
(0.100007 -0.000253665 0)
(0.100132 -0.000509834 0)
(0.100331 -0.000742762 0)
(0.100596 -0.000960015 0)
(0.100923 -0.00116496 0)
(0.101307 -0.00135978 0)
(0.101742 -0.00154627 0)
(0.102224 -0.00172587 0)
(0.102749 -0.00189969 0)
(0.103313 -0.00206863 0)
(0.103914 -0.00223339 0)
(0.104549 -0.00239454 0)
(0.105214 -0.00255256 0)
(0.105908 -0.00270782 0)
(0.106628 -0.00286061 0)
(0.107372 -0.00301119 0)
(0.108139 -0.00315974 0)
(0.108927 -0.00330639 0)
(0.109734 -0.00345127 0)
(0.110558 -0.00359442 0)
(0.111398 -0.00373589 0)
(0.112253 -0.00387569 0)
(0.11312 -0.00401381 0)
(0.114 -0.00415019 0)
(0.11489 -0.00428479 0)
(0.115789 -0.00441752 0)
(0.116697 -0.00454828 0)
(0.117612 -0.00467694 0)
(0.118532 -0.00480339 0)
(0.119457 -0.00492745 0)
(0.120386 -0.00504895 0)
(0.121317 -0.00516771 0)
(0.12225 -0.00528351 0)
(0.123183 -0.00539612 0)
(0.124116 -0.00550529 0)
(0.125047 -0.00561074 0)
(0.125976 -0.00571218 0)
(0.126901 -0.00580929 0)
(0.127822 -0.00590171 0)
(0.128738 -0.00598907 0)
(0.129647 -0.00607095 0)
(0.13055 -0.00614691 0)
(0.131444 -0.00621645 0)
(0.132329 -0.00627904 0)
(0.133204 -0.00633411 0)
(0.134069 -0.00638101 0)
(0.134922 -0.00641906 0)
(0.135763 -0.00644748 0)
(0.13659 -0.00646544 0)
(0.137403 -0.00647203 0)
(0.138202 -0.00646623 0)
(0.138986 -0.00644692 0)
(0.139753 -0.00641289 0)
(0.140503 -0.00636277 0)
(0.141237 -0.00629508 0)
(0.141953 -0.00620817 0)
(0.142651 -0.00610024 0)
(0.143331 -0.0059693 0)
(0.143993 -0.00581318 0)
(0.144638 -0.00562952 0)
(0.145265 -0.00541574 0)
(0.145877 -0.00516908 0)
(0.146474 -0.00488659 0)
(0.147058 -0.00456518 0)
(0.147631 -0.00420165 0)
(0.148198 -0.00379278 0)
(0.148762 -0.00333543 0)
(0.149328 -0.00282671 0)
(0.149902 -0.00226417 0)
(0.150491 -0.00164603 0)
(0.151104 -0.000971345 0)
(0.15175 -0.000240121 0)
(0.15244 0.000545847 0)
(0.153183 0.00137987 0)
(0.153989 0.0022546 0)
(0.154868 0.00315973 0)
(0.155828 0.00408189 0)
(0.156875 0.0050048 0)
(0.15801 0.00590997 0)
(0.159231 0.00677802 0)
(0.160527 0.007591 0)
(0.100003 -0.000282164 0)
(0.100126 -0.000570014 0)
(0.100319 -0.000832515 0)
(0.100575 -0.00107774 0)
(0.100893 -0.00130936 0)
(0.101266 -0.00152969 0)
(0.10169 -0.00174063 0)
(0.10216 -0.00194377 0)
(0.102672 -0.00214036 0)
(0.103223 -0.00233137 0)
(0.10381 -0.00251761 0)
(0.10443 -0.00269972 0)
(0.105081 -0.00287822 0)
(0.105759 -0.00305353 0)
(0.106463 -0.003226 0)
(0.107191 -0.00339589 0)
(0.107941 -0.00356341 0)
(0.108711 -0.00372874 0)
(0.1095 -0.00389198 0)
(0.110306 -0.0040532 0)
(0.111127 -0.00421246 0)
(0.111962 -0.00436976 0)
(0.11281 -0.00452508 0)
(0.11367 -0.00467838 0)
(0.114539 -0.00482958 0)
(0.115417 -0.00497861 0)
(0.116303 -0.00512533 0)
(0.117196 -0.00526963 0)
(0.118094 -0.00541134 0)
(0.118996 -0.00555029 0)
(0.119902 -0.00568629 0)
(0.120809 -0.00581912 0)
(0.121718 -0.00594855 0)
(0.122628 -0.00607432 0)
(0.123536 -0.00619616 0)
(0.124442 -0.00631375 0)
(0.125346 -0.00642678 0)
(0.126246 -0.00653489 0)
(0.127142 -0.00663769 0)
(0.128032 -0.00673479 0)
(0.128916 -0.00682572 0)
(0.129792 -0.00691001 0)
(0.130661 -0.00698713 0)
(0.131521 -0.00705652 0)
(0.132371 -0.00711756 0)
(0.13321 -0.00716958 0)
(0.134039 -0.00721187 0)
(0.134855 -0.00724363 0)
(0.135659 -0.007264 0)
(0.13645 -0.00727206 0)
(0.137227 -0.00726679 0)
(0.137989 -0.00724709 0)
(0.138737 -0.00721175 0)
(0.13947 -0.00715947 0)
(0.140188 -0.00708884 0)
(0.14089 -0.00699833 0)
(0.141577 -0.00688628 0)
(0.142249 -0.00675093 0)
(0.142906 -0.00659037 0)
(0.143549 -0.00640262 0)
(0.144179 -0.00618555 0)
(0.144797 -0.00593698 0)
(0.145405 -0.0056547 0)
(0.146006 -0.00533648 0)
(0.146601 -0.00498018 0)
(0.147195 -0.00458384 0)
(0.147792 -0.00414577 0)
(0.148395 -0.00366471 0)
(0.14901 -0.00314 0)
(0.149644 -0.00257178 0)
(0.150303 -0.00196115 0)
(0.150993 -0.00131031 0)
(0.151723 -0.000622605 0)
(0.152499 9.81294e-05 0)
(0.153328 0.00084385 0)
(0.154214 0.00160394 0)
(0.15516 0.00236801 0)
(0.156168 0.00312431 0)
(0.157238 0.00386045 0)
(0.158364 0.00456426 0)
(0.159539 0.0052252 0)
(0.099999 -0.00031152 0)
(0.100119 -0.000632103 0)
(0.100306 -0.000925393 0)
(0.100555 -0.00119981 0)
(0.100862 -0.00145934 0)
(0.101224 -0.00170639 0)
(0.101636 -0.00194298 0)
(0.102093 -0.00217084 0)
(0.102592 -0.00239133 0)
(0.103128 -0.00260552 0)
(0.1037 -0.00281431 0)
(0.104304 -0.00301839 0)
(0.104938 -0.00321836 0)
(0.105599 -0.00341467 0)
(0.106286 -0.00360773 0)
(0.106996 -0.00379781 0)
(0.107727 -0.00398517 0)
(0.108478 -0.00416997 0)
(0.109247 -0.00435236 0)
(0.110033 -0.00453241 0)
(0.110833 -0.00471016 0)
(0.111647 -0.00488564 0)
(0.112474 -0.00505882 0)
(0.113311 -0.00522964 0)
(0.114158 -0.00539804 0)
(0.115013 -0.0055639 0)
(0.115875 -0.00572711 0)
(0.116744 -0.00588752 0)
(0.117617 -0.00604494 0)
(0.118495 -0.0061992 0)
(0.119375 -0.00635007 0)
(0.120257 -0.00649732 0)
(0.12114 -0.00664069 0)
(0.122023 -0.00677991 0)
(0.122905 -0.00691466 0)
(0.123785 -0.00704461 0)
(0.124662 -0.00716943 0)
(0.125535 -0.00728871 0)
(0.126403 -0.00740206 0)
(0.127265 -0.00750904 0)
(0.128122 -0.00760916 0)
(0.128971 -0.00770191 0)
(0.129812 -0.00778676 0)
(0.130645 -0.00786311 0)
(0.131468 -0.00793032 0)
(0.132281 -0.00798771 0)
(0.133083 -0.00803454 0)
(0.133874 -0.00807003 0)
(0.134654 -0.00809332 0)
(0.135421 -0.00810348 0)
(0.136175 -0.00809955 0)
(0.136916 -0.00808046 0)
(0.137644 -0.00804508 0)
(0.138359 -0.0079922 0)
(0.13906 -0.00792053 0)
(0.139748 -0.00782873 0)
(0.140423 -0.00771534 0)
(0.141086 -0.00757888 0)
(0.141737 -0.0074178 0)
(0.142377 -0.0072305 0)
(0.143008 -0.00701539 0)
(0.14363 -0.0067709 0)
(0.144247 -0.00649553 0)
(0.14486 -0.00618788 0)
(0.145472 -0.00584678 0)
(0.146086 -0.00547131 0)
(0.146706 -0.00506093 0)
(0.147335 -0.00461561 0)
(0.147978 -0.00413592 0)
(0.14864 -0.00362314 0)
(0.149324 -0.00307943 0)
(0.150037 -0.00250789 0)
(0.150783 -0.00191258 0)
(0.151566 -0.00129848 0)
(0.15239 -0.000671074 0)
(0.153258 -3.61543e-05 0)
(0.154172 0.000597753 0)
(0.155129 0.00122103 0)
(0.156128 0.00182455 0)
(0.157166 0.0024007 0)
(0.158234 0.00294332 0)
(0.0999948 -0.000341734 0)
(0.100113 -0.000696061 0)
(0.100294 -0.00102131 0)
(0.100534 -0.00132611 0)
(0.100831 -0.00161473 0)
(0.101181 -0.00188969 0)
(0.10158 -0.00215311 0)
(0.102023 -0.00240683 0)
(0.102507 -0.00265232 0)
(0.103028 -0.00289077 0)
(0.103584 -0.00312314 0)
(0.104171 -0.0033502 0)
(0.104787 -0.0035726 0)
(0.105429 -0.00379085 0)
(0.106097 -0.00400538 0)
(0.106787 -0.00421652 0)
(0.107498 -0.00442452 0)
(0.108228 -0.00462959 0)
(0.108976 -0.00483187 0)
(0.109739 -0.00503146 0)
(0.110517 -0.00522839 0)
(0.111308 -0.00542269 0)
(0.112111 -0.00561433 0)
(0.112924 -0.00580325 0)
(0.113746 -0.00598938 0)
(0.114576 -0.00617259 0)
(0.115413 -0.00635274 0)
(0.116256 -0.00652968 0)
(0.117103 -0.00670322 0)
(0.117953 -0.00687314 0)
(0.118806 -0.00703921 0)
(0.119661 -0.00720118 0)
(0.120516 -0.00735876 0)
(0.121371 -0.00751165 0)
(0.122224 -0.00765953 0)
(0.123075 -0.00780204 0)
(0.123923 -0.0079388 0)
(0.124766 -0.00806941 0)
(0.125605 -0.00819344 0)
(0.126439 -0.00831043 0)
(0.127266 -0.00841988 0)
(0.128086 -0.00852125 0)
(0.128898 -0.008614 0)
(0.129702 -0.00869751 0)
(0.130497 -0.00877115 0)
(0.131282 -0.00883423 0)
(0.132058 -0.00888603 0)
(0.132822 -0.00892576 0)
(0.133576 -0.00895261 0)
(0.134318 -0.0089657 0)
(0.135049 -0.00896412 0)
(0.135768 -0.00894688 0)
(0.136475 -0.00891296 0)
(0.137171 -0.0088613 0)
(0.137855 -0.00879078 0)
(0.138528 -0.00870025 0)
(0.13919 -0.00858854 0)
(0.139842 -0.00845446 0)
(0.140486 -0.00829684 0)
(0.141121 -0.00811453 0)
(0.14175 -0.00790644 0)
(0.142374 -0.00767158 0)
(0.142995 -0.0074091 0)
(0.143615 -0.00711833 0)
(0.144236 -0.00679888 0)
(0.144862 -0.00645063 0)
(0.145495 -0.0060739 0)
(0.146139 -0.00566944 0)
(0.146796 -0.00523854 0)
(0.14747 -0.00478309 0)
(0.148165 -0.00430562 0)
(0.148882 -0.00380934 0)
(0.149626 -0.00329815 0)
(0.150399 -0.00277655 0)
(0.151201 -0.00224962 0)
(0.152035 -0.00172272 0)
(0.1529 -0.00120129 0)
(0.153797 -0.000690086 0)
(0.154723 -0.000194262 0)
(0.155675 0.000280791 0)
(0.156647 0.000731027 0)
(0.0999903 -0.00037279 0)
(0.100106 -0.000761826 0)
(0.100282 -0.00112014 0)
(0.100512 -0.00145645 0)
(0.100799 -0.00177531 0)
(0.101137 -0.00207932 0)
(0.101522 -0.0023707 0)
(0.101951 -0.00265138 0)
(0.102419 -0.00292295 0)
(0.102923 -0.0031867 0)
(0.103461 -0.00344365 0)
(0.104029 -0.00369465 0)
(0.104626 -0.00394041 0)
(0.105249 -0.00418149 0)
(0.105896 -0.00441835 0)
(0.106565 -0.00465135 0)
(0.107254 -0.00488078 0)
(0.107961 -0.00510686 0)
(0.108686 -0.00532974 0)
(0.109425 -0.00554952 0)
(0.110179 -0.00576626 0)
(0.110945 -0.00597997 0)
(0.111722 -0.00619062 0)
(0.112509 -0.00639816 0)
(0.113304 -0.0066025 0)
(0.114107 -0.00680349 0)
(0.114917 -0.00700101 0)
(0.115731 -0.00719486 0)
(0.11655 -0.00738484 0)
(0.117371 -0.00757074 0)
(0.118195 -0.00775228 0)
(0.11902 -0.0079292 0)
(0.119845 -0.00810121 0)
(0.120669 -0.00826796 0)
(0.121492 -0.00842913 0)