/*--------------------------------*- C++ -*----------------------------------*\
| =========                 |                                                 |
| \\      /  F ield         | OpenFOAM: The Open Source CFD Toolbox           |
|  \\    /   O peration     | Version:  2106                                  |
|   \\  /    A nd           | Website:  www.openfoam.com                      |
|    \\/     M anipulation  |                                                 |
\*---------------------------------------------------------------------------*/
FoamFile
{
    version     2.0;
    format      ascii;
    arch        "LSB;label=32;scalar=64";
    class       surfaceScalarField;
    location    "7.4";
    object      phi;
}
// * * * * * * * * * * * * * * * * * * * * * * * * * * * * * * * * * * * * * //

dimensions      [1 0 -1 0 0 0 0];

oriented        oriented;

internalField   nonuniform List<scalar> 
23692
(
9.31843e-05
-1.04886e-07
9.33742e-05
-1.89821e-07
9.36397e-05
-2.65475e-07
9.39718e-05
-3.32107e-07
9.43636e-05
-3.91797e-07
9.48095e-05
-4.45809e-07
9.53045e-05
-4.94988e-07
9.58446e-05
-5.40001e-07
9.6426e-05
-5.81371e-07
9.70456e-05
-6.19511e-07
9.77004e-05
-6.54766e-07
9.83879e-05
-6.87408e-07
9.91057e-05
-7.17673e-07
9.98515e-05
-7.45758e-07
0.000100623
-7.71832e-07
0.00010142
-7.96033e-07
0.000102238
-8.1849e-07
0.000103078
-8.39303e-07
0.000103936
-8.58565e-07
0.000104813
-8.76351e-07
0.000105706
-8.92735e-07
0.000106613
-9.07774e-07
0.000107535
-9.21521e-07
0.000108469
-9.3402e-07
0.000109415
-9.4531e-07
0.00011037
-9.5543e-07
0.000111335
-9.64407e-07
0.000112307
-9.72268e-07
0.000113286
-9.79037e-07
0.000114271
-9.84733e-07
0.000115261
-9.89373e-07
0.000116254
-9.92969e-07
0.000117249
-9.95534e-07
0.000118247
-9.97075e-07
0.000119244
-9.97599e-07
0.000120241
-9.97107e-07
0.000121237
-9.95599e-07
0.00012223
-9.93075e-07
0.00012322
-9.89525e-07
0.000124205
-9.84943e-07
0.000125184
-9.79313e-07
0.000126157
-9.72619e-07
0.000127122
-9.64838e-07
0.000128078
-9.55942e-07
0.000129024
-9.45899e-07
0.000129959
-9.34668e-07
0.000130881
-9.22202e-07
0.00013179
-9.08444e-07
0.000132683
-8.93326e-07
0.00013356
-8.76768e-07
0.000134418
-8.58678e-07
0.000135257
-8.38942e-07
0.000136075
-8.17432e-07
0.000136869
-7.93991e-07
0.000137637
-7.68434e-07
0.000138378
-7.40542e-07
0.000139088
-7.10052e-07
0.000139765
-6.76646e-07
0.000140405
-6.39941e-07
0.000141004
-5.99471e-07
0.000141559
-5.54662e-07
0.000142064
-5.04806e-07
0.000142513
-4.49019e-07
0.000142899
-3.86184e-07
0.000143214
-3.14881e-07
0.000143447
-2.33271e-07
0.000143586
-1.38952e-07
0.000143615
-2.87416e-08
0.000143513
1.01722e-07
0.000143255
2.58514e-07
0.000142804
4.50284e-07
0.000142115
6.89614e-07
0.000141119
9.95324e-07
0.000139723
1.3964e-06
0.000137784
1.93885e-06
0.000135086
2.69779e-06
0.000131287
3.79894e-06
0.000125829
5.45884e-06
0.00011775
8.07838e-06
0.000105265
1.24849e-05
2.10678e-05
8.41974e-05
9.97084e-05
-2.14324e-07
9.99104e-05
-3.91785e-07
0.000100194
-5.48631e-07
0.000100548
-6.86525e-07
0.000100966
-8.10097e-07
0.000101442
-9.21906e-07
0.000101971
-1.02369e-06
0.000102548
-1.11685e-06
0.000103169
-1.20247e-06
0.000103831
-1.28139e-06
0.000104531
-1.35434e-06
0.000105265
-1.42187e-06
0.000106032
-1.48449e-06
0.000106829
-1.54259e-06
0.000107654
-1.59653e-06
0.000108505
-1.64659e-06
0.000109379
-1.69304e-06
0.000110276
-1.73608e-06
0.000111194
-1.77591e-06
0.00011213
-1.81269e-06
0.000113084
-1.84656e-06
0.000114054
-1.87764e-06
0.000115039
-1.90606e-06
0.000116037
-1.93188e-06
0.000117047
-1.95521e-06
0.000118068
-1.97611e-06
0.000119098
-1.99464e-06
0.000120137
-2.01087e-06
0.000121183
-2.02483e-06
0.000122235
-2.03657e-06
0.000123291
-2.04612e-06
0.000124352
-2.05351e-06
0.000125416
-2.05877e-06
0.00012648
-2.06191e-06
0.000127546
-2.06294e-06
0.000128611
-2.06187e-06
0.000129674
-2.0587e-06
0.000130734
-2.05342e-06
0.000131791
-2.04602e-06
0.000132843
-2.03649e-06
0.000133888
-2.02479e-06
0.000134927
-2.01088e-06
0.000135957
-1.99473e-06
0.000136977
-1.97628e-06
0.000137987
-1.95545e-06
0.000138984
-1.93217e-06
0.000139968
-1.90634e-06
0.000140938
-1.87784e-06
0.000141891
-1.84654e-06
0.000142827
-1.81227e-06
0.000143743
-1.77483e-06
0.000144638
-1.73401e-06
0.00014551
-1.68954e-06
0.000146357
-1.6411e-06
0.000147177
-1.58831e-06
0.000147968
-1.53072e-06
0.000148725
-1.46781e-06
0.000149448
-1.39894e-06
0.000150131
-1.32332e-06
0.000150772
-1.24001e-06
0.000151365
-1.14787e-06
0.000151906
-1.04548e-06
0.000152388
-9.31062e-07
0.000152804
-8.02408e-07
0.000153146
-6.56701e-07
0.000153403
-4.9033e-07
0.000153562
-2.98604e-07
0.000153609
-7.53466e-08
0.000153523
1.87725e-07
0.00015328
5.02013e-07
0.000152846
8.83456e-07
0.000152181
1.35471e-06
0.000151228
1.94865e-06
0.00014991
2.71403e-06
0.000148125
3.72447e-06
0.00014573
5.09261e-06
0.000142538
6.99091e-06
0.000138317
9.67952e-06
0.000132851
1.35442e-05
0.000126272
1.90639e-05
2.6079e-05
0.000121261
0.000106688
-3.27662e-07
0.000106902
-6.05627e-07
0.000107203
-8.4925e-07
0.00010758
-1.06356e-06
0.000108025
-1.25554e-06
0.000108533
-1.4292e-06
0.000109096
-1.58726e-06
0.000109712
-1.7319e-06
0.000110374
-1.86482e-06
0.00011108
-1.98733e-06
0.000111826
-2.10054e-06
0.00011261
-2.20535e-06
0.000113428
-2.30252e-06
0.000114278
-2.39266e-06
0.000115158
-2.47634e-06
0.000116066
-2.55399e-06
0.000116999
-2.62602e-06
0.000117956
-2.69276e-06
0.000118934
-2.75451e-06
0.000119933
-2.81152e-06
0.000120951
-2.86401e-06
0.000121985
-2.91217e-06
0.000123036
-2.95618e-06
0.0001241
-2.99617e-06
0.000125177
-3.03227e-06
0.000126266
-3.0646e-06
0.000127365
-3.09326e-06
0.000128472
-3.11832e-06
0.000129587
-3.13987e-06
0.000130709
-3.15797e-06
0.000131836
-3.17267e-06
0.000132966
-3.18402e-06
0.0001341
-3.19205e-06
0.000135235
-3.19678e-06
0.00013637
-3.19825e-06
0.000137505
-3.19645e-06
0.000138638
-3.19139e-06
0.000139767
-3.18305e-06
0.000140893
-3.17143e-06
0.000142013
-3.15649e-06
0.000143127
-3.13819e-06
0.000144232
-3.11647e-06
0.000145329
-3.09127e-06
0.000146415
-3.0625e-06
0.00014749
-3.03005e-06
0.000148552
-2.99381e-06
0.000149599
-2.95362e-06
0.000150631
-2.9093e-06
0.000151645
-2.86065e-06
0.00015264
-2.80742e-06
0.000153614
-2.74931e-06
0.000154567
-2.68599e-06
0.000155494
-2.61704e-06
0.000156395
-2.54199e-06
0.000157267
-2.46027e-06
0.000158108
-2.37122e-06
0.000158914
-2.27401e-06
0.000159683
-2.16771e-06
0.00016041
-2.05114e-06
0.000161093
-1.92291e-06
0.000161727
-1.78131e-06
0.000162306
-1.62425e-06
0.000162824
-1.44914e-06
0.000163274
-1.25276e-06
0.000163648
-1.03104e-06
0.000163937
-7.7883e-07
0.000164128
-4.89483e-07
0.000164207
-1.54396e-07
0.000164157
2.37715e-07
0.000163957
7.01985e-07
0.000163581
1.25903e-06
0.000162999
1.93717e-06
0.000162172
2.77568e-06
0.000161056
3.82967e-06
0.000159604
5.17662e-06
0.000157772
6.92468e-06
0.000155543
9.2203e-06
0.000152975
1.22475e-05
0.000150323
1.61954e-05
0.000148295
2.10924e-05
2.62127e-05
0.000148161
0.000114157
-4.44597e-07
0.000114382
-8.30781e-07
0.0001147
-1.16713e-06
0.0001151
-1.46336e-06
0.000115573
-1.72859e-06
0.000116112
-1.96842e-06
0.000116711
-2.18667e-06
0.000117366
-2.38635e-06
0.000118071
-2.5698e-06
0.000118823
-2.73887e-06
0.000119617
-2.89508e-06
0.000120452
-3.03967e-06
0.000121323
-3.17368e-06
0.000122228
-3.298e-06
0.000123166
-3.41337e-06
0.000124132
-3.52041e-06
0.000125126
-3.61969e-06
0.000126145
-3.71165e-06
0.000127187
-3.79671e-06
0.000128251
-3.87522e-06
0.000129335
-3.94749e-06
0.000130436
-4.01377e-06
0.000131555
-4.0743e-06
0.000132688
-4.12928e-06
0.000133835
-4.1789e-06
0.000134994
-4.2233e-06
0.000136163
-4.26262e-06
0.000137342
-4.29698e-06
0.000138529
-4.32649e-06
0.000139722
-4.35122e-06
0.000140921
-4.37126e-06
0.000142124
-4.38666e-06
0.000143329
-4.39748e-06
0.000144536
-4.40375e-06
0.000145744
-4.4055e-06
0.00014695
-4.40275e-06
0.000148154
-4.39549e-06
0.000149355
-4.38372e-06
0.000150551
-4.36741e-06
0.000151741
-4.34653e-06
0.000152924
-4.32101e-06
0.000154099
-4.29079e-06
0.000155263
-4.25576e-06
0.000156417
-4.21583e-06
0.000157558
-4.17084e-06
0.000158685
-4.12063e-06
0.000159796
-4.06499e-06
0.00016089
-4.0037e-06
0.000161966
-3.93647e-06
0.000163022
-3.86297e-06
0.000164056
-3.7828e-06
0.000165065
-3.69552e-06
0.000166049
-3.60057e-06
0.000167004
-3.49733e-06
0.000167929
-3.38505e-06
0.000168821
-3.26283e-06
0.000169676
-3.12962e-06
0.000170493
-2.98417e-06
0.000171267
-2.82495e-06
0.000171994
-2.65016e-06
0.00017267
-2.4576e-06
0.000173291
-2.2446e-06
0.000173849
-2.00787e-06
0.00017434
-1.74336e-06
0.000174755
-1.44604e-06
0.000175086
-1.10958e-06
0.000175322
-7.26016e-07
0.000175453
-2.85178e-07
0.000175465
2.25882e-07
0.000175343
8.23893e-07
0.000175071
1.53086e-06
0.000174633
2.37566e-06
0.000174012
3.39618e-06
0.0001732
4.64191e-06
0.0001722
6.17643e-06
0.000171046
8.07876e-06
0.000169827
1.04397e-05
0.000168729
1.33449e-05
0.000168098
1.68266e-05
0.000168452
2.07382e-05
2.44888e-05
0.000170176
0.000122148
-5.64997e-07
0.000122384
-1.06679e-06
0.000122719
-1.50202e-06
0.000123141
-1.88588e-06
0.000123642
-2.22951e-06
0.000124214
-2.54012e-06
0.00012485
-2.82271e-06
0.000125545
-3.0812e-06
0.000126294
-3.31862e-06
0.000127092
-3.53738e-06
0.000127937
-3.73945e-06
0.000128824
-3.92645e-06
0.00012975
-4.09974e-06
0.000130712
-4.26045e-06
0.000131709
-4.40955e-06
0.000132736
-4.54786e-06
0.000133793
-4.67609e-06
0.000134876
-4.79485e-06
0.000135984
-4.90465e-06
0.000137115
-5.00596e-06
0.000138267
-5.09917e-06
0.000139438
-5.18463e-06
0.000140627
-5.26263e-06
0.000141831
-5.33343e-06
0.000143049
-5.39728e-06
0.000144281
-5.45437e-06
0.000145523
-5.50487e-06
0.000146775
-5.54894e-06
0.000148036
-5.58672e-06
0.000149303
-5.61831e-06
0.000150575
-5.64382e-06
0.000151852
-5.66333e-06
0.000153132
-5.6769e-06
0.000154413
-5.68458e-06
0.000155694
-5.6864e-06
0.000156974
-5.6824e-06
0.000158251
-5.67257e-06
0.000159524
-5.6569e-06
0.000160792
-5.63536e-06
0.000162054
-5.6079e-06
0.000163307
-5.57446e-06
0.000164552
-5.53495e-06
0.000165785
-5.48925e-06
0.000167007
-5.43721e-06
0.000168215
-5.37867e-06
0.000169408
-5.31341e-06
0.000170584
-5.24118e-06
0.000171742
-5.1617e-06
0.00017288
-5.0746e-06
0.000173997
-4.97949e-06
0.00017509
-4.87587e-06
0.000176158
-4.76319e-06
0.000177198
-4.64077e-06
0.000178208
-4.50784e-06
0.000179187
-4.36348e-06
0.000180131
-4.20662e-06
0.000181037
-4.03597e-06
0.000181903
-3.85001e-06
0.000182725
-3.64696e-06
0.0001835
-3.42464e-06
0.000184222
-3.18048e-06
0.000184889
-2.91137e-06
0.000185495
-2.61352e-06
0.000186034
-2.28235e-06
0.0001865
-1.91223e-06
0.000186887
-1.49623e-06
0.000187187
-1.02579e-06
0.000187392
-4.90289e-07
0.000187494
1.23369e-07
0.000187487
8.3135e-07
0.000187364
1.6538e-06
0.000187124
2.61593e-06
0.000186771
3.7485e-06
0.000186325
5.0883e-06
0.000185824
6.67748e-06
0.000185342
8.56059e-06
0.000185005
1.07766e-05
0.000185009
1.33412e-05
0.000185624
1.62109e-05
0.000187144
1.92184e-05
2.1979e-05
0.000189654
0.000130698
-6.88851e-07
0.000130944
-1.31328e-06
0.000131296
-1.85365e-06
0.000131741
-2.33103e-06
0.00013227
-2.75843e-06
0.000132875
-3.14466e-06
0.000133548
-3.49598e-06
0.000134284
-3.81724e-06
0.000135078
-4.11225e-06
0.000135925
-4.384e-06
0.00013682
-4.63495e-06
0.000137761
-4.86713e-06
0.000138744
-5.08222e-06
0.000139765
-5.28164e-06
0.000140822
-5.4666e-06
0.000141913
-5.63812e-06
0.000143034
-5.79708e-06
0.000144183
-5.94424e-06
0.000145359
-6.08025e-06
0.000146559
-6.20568e-06
0.000147781
-6.32102e-06
0.000149023
-6.4267e-06
0.000150284
-6.5231e-06
0.000151561
-6.61055e-06
0.000152853
-6.68933e-06
0.000154159
-6.75969e-06
0.000155476
-6.82185e-06
0.000156803
-6.87602e-06
0.000158139
-6.92234e-06
0.000159482
-6.96097e-06
0.00016083
-6.99204e-06
0.000162183
-7.01563e-06
0.000163538
-7.03184e-06
0.000164894
-7.04072e-06
0.00016625
-7.04233e-06
0.000167605
-7.0367e-06
0.000168956
-7.02383e-06
0.000170303
-7.00371e-06
0.000171644
-6.97631e-06
0.000172978
-6.94158e-06
0.000174303
-6.89943e-06
0.000175618
-6.84976e-06
0.000176921
-6.79244e-06
0.000178211
-6.7273e-06
0.000179487
-6.65413e-06
0.000180746
-6.57268e-06
0.000181988
-6.48267e-06
0.00018321
-6.38374e-06
0.000184411
-6.27549e-06
0.000185589
-6.15743e-06
0.000186742
-6.029e-06
0.000187869
-5.88954e-06
0.000188966
-5.73829e-06
0.000190033
-5.57434e-06
0.000191066
-5.39664e-06
0.000192063
-5.20395e-06
0.000193022
-4.99482e-06
0.00019394
-4.76755e-06
0.000194813
-4.52012e-06
0.000195639
-4.25015e-06
0.000196413
-3.95483e-06
0.000197133
-3.63078e-06
0.000197793
-3.27401e-06
0.00019839
-2.87971e-06
0.00019892
-2.44214e-06
0.000199379
-1.95439e-06
0.000199761
-1.40814e-06
0.000200064
-7.9345e-07
0.000200286
-9.84488e-08
0.000200426
6.9076e-07
0.00020049
1.59008e-06
0.000200488
2.6184e-06
0.000200439
3.79675e-06
0.00020038
5.14736e-06
0.000200366
6.6916e-06
0.000200481
8.4458e-06
0.000200844
1.0414e-05
0.000201609
1.25754e-05
0.000202955
1.48655e-05
0.000205024
1.71494e-05
1.91996e-05
0.000207803
0.000139847
-8.16255e-07
0.000140104
-1.57e-06
0.000140472
-2.22178e-06
0.000140939
-2.79864e-06
0.000141496
-3.31535e-06
0.000142134
-3.78224e-06
0.000142845
-4.20686e-06
0.000143623
-4.59506e-06
0.000144462
-4.95144e-06
0.000145358
-5.27964e-06
0.000146306
-5.58264e-06
0.000147302
-5.86287e-06
0.000148342
-6.1224e-06
0.000149423
-6.36294e-06
0.000150543
-6.58595e-06
0.000151698
-6.79269e-06
0.000152885
-6.9842e-06
0.000154102
-7.16142e-06
0.000155347
-7.32513e-06
0.000156618
-7.47602e-06
0.000157912
-7.61469e-06
0.000159227
-7.74166e-06
0.000160561
-7.85739e-06
0.000161913
-7.96227e-06
0.000163281
-8.05665e-06
0.000164662
-8.14084e-06
0.000166055
-8.21511e-06
0.000167459
-8.27969e-06
0.000168872
-8.33479e-06
0.000170292
-8.38058e-06
0.000171717
-8.4172e-06
0.000173146
-8.4448e-06
0.000174578
-8.46347e-06
0.000176011
-8.47328e-06
0.000177443
-8.47432e-06
0.000178873
-8.4666e-06
0.0001803
-8.45014e-06
0.000181721
-8.42495e-06
0.000183136
-8.39098e-06
0.000184542
-8.34818e-06
0.00018594
-8.29646e-06
0.000187326
-8.2357e-06
0.000188699
-8.16576e-06
0.000190058
-8.08644e-06
0.000191402
-7.99752e-06
0.000192728
-7.89871e-06
0.000194035
-7.7897e-06
0.000195322
-7.67008e-06
0.000196586
-7.5394e-06
0.000197825
-7.39712e-06
0.000199039
-7.24261e-06
0.000200225
-7.07515e-06
0.000201381
-6.89389e-06
0.000202504
-6.69783e-06
0.000203593
-6.48583e-06
0.000204646
-6.25656e-06
0.00020566
-6.00845e-06
0.000206632
-5.7397e-06
0.00020756
-5.44819e-06
0.000208441
-5.13145e-06
0.000209273
-4.78661e-06
0.000210053
-4.41027e-06
0.000210777
-3.99851e-06
0.000211444
-3.54669e-06
0.000212052
-3.04943e-06
0.000212598
-2.50043e-06
0.000213082
-1.89242e-06
0.000213505
-1.21699e-06
0.000213872
-4.64626e-07
0.000214187
3.75267e-07
0.000214464
1.31349e-06
0.000214721
2.36157e-06
0.000214986
3.53089e-06
0.000215303
4.83102e-06
0.000215727
6.26748e-06
0.000216334
7.83835e-06
0.000217219
9.52937e-06
0.000218487
1.13074e-05
0.00022024
1.31126e-05
0.000222538
1.48508e-05
1.63942e-05
0.000225344
0.000149637
-9.47364e-07
0.000149903
-1.83676e-06
0.000150288
-2.60622e-06
0.000150778
-3.28851e-06
0.000151363
-3.90017e-06
0.000152033
-4.45291e-06
0.000152782
-4.95557e-06
0.000153602
-5.41504e-06
0.000154488
-5.83674e-06
0.000155433
-6.22499e-06
0.000156434
-6.5833e-06
0.000157486
-6.91459e-06
0.000158585
-7.22129e-06
0.000159727
-7.50544e-06
0.00016091
-7.76878e-06
0.000162131
-8.01279e-06
0.000163385
-8.23872e-06
0.000164672
-8.44768e-06
0.000165987
-8.6406e-06
0.00016733
-8.8183e-06
0.000168697
-8.98149e-06
0.000170086
-9.1308e-06
0.000171496
-9.26676e-06
0.000172923
-9.38985e-06
0.000174367
-9.50048e-06
0.000175826
-9.59902e-06
0.000177297
-9.68579e-06
0.000178778
-9.76107e-06
0.000180269
-9.82511e-06
0.000181767
-9.8781e-06
0.00018327
-9.92025e-06
0.000184777
-9.95169e-06
0.000186286
-9.97256e-06
0.000187796
-9.98296e-06
0.000189305
-9.98296e-06
0.000190811
-9.97262e-06
0.000192313
-9.95196e-06
0.000193809
-9.92098e-06
0.000195298
-9.87966e-06
0.000196778
-9.82794e-06
0.000198247
-9.76571e-06
0.000199705
-9.69288e-06
0.000201148
-9.60926e-06
0.000202577
-9.51467e-06
0.000203988
-9.40886e-06
0.000205381
-9.29152e-06
0.000206754
-9.1623e-06
0.000208105
-9.02079e-06
0.000209432
-8.86648e-06
0.000210734
-8.69882e-06
0.000212008
-8.51713e-06
0.000213254
-8.32064e-06
0.000214468
-8.10845e-06
0.00021565
-7.87955e-06
0.000216797
-7.63273e-06
0.000217907
-7.36663e-06
0.000218979
-7.07967e-06
0.000220009
-6.77004e-06
0.000220996
-6.43565e-06
0.000221939
-6.0741e-06
0.000222835
-5.68264e-06
0.000223683
-5.25812e-06
0.000224482
-4.79695e-06
0.00022523
-4.29504e-06
0.000225928
-3.74778e-06
0.000226578
-3.15001e-06
0.000227182
-2.496e-06
0.000227744
-1.77954e-06
0.000228274
-9.94019e-07
0.000228781
-1.32543e-07
0.000229284
8.11134e-07
0.000229804
1.84151e-06
0.000230373
2.96211e-06
0.00023103
4.17337e-06
0.000231827
5.47096e-06
0.000232821
6.84363e-06
0.00023408
8.27075e-06
0.000235668
9.71967e-06
0.000237637
1.11437e-05
0.000240006
1.24818e-05
1.36638e-05
0.000242736
0.000160112
-1.08237e-06
0.000160388
-2.11345e-06
0.000160789
-3.00683e-06
0.000161301
-3.80046e-06
0.000161914
-4.51273e-06
0.000162617
-5.1566e-06
0.000163404
-5.74215e-06
0.000164266
-6.27733e-06
0.000165198
-6.76842e-06
0.000166194
-7.22042e-06
0.000167248
-7.63745e-06
0.000168356
-8.02288e-06
0.000169515
-8.37957e-06
0.000170719
-8.7099e-06
0.000171967
-9.01589e-06
0.000173253
-9.29927e-06
0.000174576
-9.56152e-06
0.000175933
-9.80393e-06
0.00017732
-1.00276e-05
0.000178735
-1.02335e-05
0.000180176
-1.04224e-05
0.000181641
-1.0595e-05
0.000183126
-1.07521e-05
0.000184631
-1.08942e-05
0.000186152
-1.10216e-05
0.000187688
-1.1135e-05
0.000189237
-1.12346e-05
0.000190797
-1.13208e-05
0.000192366
-1.13939e-05
0.000193943
-1.14541e-05
0.000195524
-1.15016e-05
0.000197109
-1.15367e-05
0.000198696
-1.15594e-05
0.000200284
-1.157e-05
0.000201869
-1.15684e-05
0.000203452
-1.15549e-05
0.000205029
-1.15293e-05
0.0002066
-1.14918e-05
0.000208163
-1.14423e-05
0.000209716
-1.13807e-05
0.000211257
-1.1307e-05
0.000212786
-1.1221e-05
0.000214299
-1.11227e-05
0.000215796
-1.10117e-05
0.000217276
-1.08879e-05
0.000218735
-1.07508e-05
0.000220173
-1.06003e-05
0.000221588
-1.04358e-05
0.000222979
-1.02568e-05
0.000224343
-1.00627e-05
0.000225679
-9.85296e-06
0.000226985
-9.62669e-06
0.000228259
-9.38302e-06
0.000229501
-9.12094e-06
0.000230707
-8.83928e-06
0.000231878
-8.53672e-06
0.00023301
-8.21175e-06
0.000234102
-7.86267e-06
0.000235154
-7.48754e-06
0.000236165
-7.08421e-06
0.000237132
-6.65024e-06
0.000238057
-6.18293e-06
0.000238939
-5.6793e-06
0.00023978
-5.13608e-06
0.000240582
-4.54974e-06
0.000241349
-3.91654e-06
0.000242086
-3.23262e-06
0.0002428
-2.49415e-06
0.000243504
-1.69746e-06
0.000244211
-8.39381e-07
0.000244939
8.26512e-08
0.000245712
1.06877e-06
0.000246558
2.11615e-06
0.000247511
3.2199e-06
0.000248611
4.37083e-06
0.0002499
5.55468e-06
0.00025142
6.75109e-06
0.000253206
7.9331e-06
0.000255283
9.06743e-06
0.000257648
1.01162e-05
1.10411e-05
0.000260271
0.00017132
-1.22147e-06
0.000171607
-2.39999e-06
0.000172023
-3.42346e-06
0.000172557
-4.33428e-06
0.000173197
-5.15281e-06
0.000173934
-5.89312e-06
0.000174758
-6.56647e-06
0.000175663
-7.18189e-06
0.000176641
-7.74651e-06
0.000177687
-8.26607e-06
0.000178795
-8.74527e-06
0.00017996
-9.18802e-06
0.000181178
-9.59757e-06
0.000182445
-9.97668e-06
0.000183757
-1.03277e-05
0.000185111
-1.06526e-05
0.000186503
-1.09531e-05
0.00018793
-1.12307e-05
0.000189389
-1.14866e-05
0.000190878
-1.1722e-05
0.000192393
-1.19378e-05
0.000193933
-1.21348e-05
0.000195495
-1.23139e-05
0.000197077
-1.24755e-05
0.000198676
-1.26204e-05
0.00020029
-1.2749e-05
0.000201917
-1.28618e-05
0.000203556
-1.29591e-05
0.000205203
-1.30412e-05
0.000206858
-1.31085e-05
0.000208518
-1.31613e-05
0.000210181
-1.31997e-05
0.000211846
-1.32239e-05
0.00021351
-1.32341e-05
0.000215172
-1.32304e-05
0.00021683
-1.32129e-05
0.000218483
-1.31817e-05
0.000220128
-1.31368e-05
0.000221764
-1.30782e-05
0.00022339
-1.30058e-05
0.000225002
-1.29196e-05
0.000226601
-1.28195e-05
0.000228184
-1.27053e-05
0.000229749
-1.25769e-05
0.000231295
-1.24339e-05
0.000232821
-1.22762e-05
0.000234324
-1.21032e-05
0.000235803
-1.19147e-05
0.000237257
-1.17102e-05
0.000238683
-1.1489e-05
0.000240081
-1.12505e-05
0.000241448
-1.09941e-05
0.000242784
-1.07188e-05
0.000244087
-1.04237e-05
0.000245355
-1.01077e-05
0.000246588
-9.76969e-06
0.000247785
-9.40828e-06
0.000248944
-9.02198e-06
0.000250066
-8.60917e-06
0.00025115
-8.16805e-06
0.000252196
-7.69667e-06
0.000253206
-7.19296e-06
0.000254182
-6.65471e-06
0.000255125
-6.07965e-06
0.000256041
-5.46548e-06
0.000256935
-4.81e-06
0.000257813
-4.1112e-06
0.000258687
-3.36746e-06
0.000259567
-2.57774e-06
0.000260469
-1.74184e-06
0.000261413
-8.60549e-07
0.000262417
6.40981e-08
0.000263507
1.02678e-06
0.000264707
2.01915e-06
0.000266048
3.03064e-06
0.000267555
4.04746e-06
0.000269253
5.05246e-06
0.000271161
6.02543e-06
0.000273285
6.94391e-06
0.000275616
7.78489e-06
8.52766e-06
0.000278129
0.000183314
-1.36483e-06
0.00018361
-2.69634e-06
0.000184042
-3.85595e-06
0.000184598
-4.88975e-06
0.000185265
-5.82011e-06
0.000186034
-6.66213e-06
0.000186896
-7.42822e-06
0.000187843
-8.12843e-06
0.000188867
-8.77077e-06
0.000189963
-9.36173e-06
0.000191125
-9.90663e-06
0.000192347
-1.04099e-05
0.000193624
-1.08752e-05
0.000194954
-1.13058e-05
0.00019633
-1.17042e-05
0.000197751
-1.20728e-05
0.000199211
-1.24134e-05
0.000200709
-1.27279e-05
0.00020224
-1.30176e-05
0.000203802
-1.32838e-05
0.000205392
-1.35276e-05
0.000207008
-1.375e-05
0.000208646
-1.39518e-05
0.000210304
-1.41338e-05
0.000211981
-1.42966e-05
0.000213673
-1.44408e-05
0.000215378
-1.45669e-05
0.000217095
-1.46754e-05
0.00021882
-1.47666e-05
0.000220553
-1.48409e-05
0.00022229
-1.48985e-05
0.000224031
-1.49399e-05
0.000225772
-1.49651e-05
0.000227513
-1.49744e-05
0.000229251
-1.49679e-05
0.000230984
-1.49458e-05
0.00023271
-1.49081e-05
0.000234429
-1.48549e-05
0.000236137
-1.47863e-05
0.000237834
-1.47021e-05
0.000239517
-1.46025e-05
0.000241184
-1.44872e-05
0.000242835
-1.43561e-05
0.000244468
-1.42092e-05
0.00024608
-1.40461e-05
0.000247671
-1.38666e-05
0.000249238
-1.36705e-05
0.000250781
-1.34572e-05
0.000252297
-1.32264e-05
0.000253786
-1.29776e-05
0.000255246
-1.27102e-05
0.000256675
-1.24235e-05
0.000258074
-1.21169e-05
0.000259439
-1.17895e-05
0.000260772
-1.14403e-05
0.000262071
-1.10685e-05
0.000263336
-1.06729e-05
0.000264566
-1.02524e-05
0.000265763
-9.80572e-06
0.000266927
-9.33155e-06
0.000268058
-8.82855e-06
0.000269161
-8.29536e-06
0.000270237
-7.73066e-06
0.000271291
-7.1332e-06
0.000272327
-6.50194e-06
0.000273353
-5.83608e-06
0.000274377
-5.13526e-06
0.000275409
-4.39968e-06
0.000276462
-3.63028e-06
0.000277549
-2.82893e-06
0.000278687
-1.99862e-06
0.000279895
-1.1435e-06
0.00028119
-2.68718e-07
0.000282592
6.17535e-07
0.000284118
1.50497e-06
0.000285784
2.38116e-06
0.000287603
3.23295e-06
0.000289583
4.04606e-06
0.000291721
4.80577e-06
0.000294007
5.49839e-06
6.1129e-06
0.000296422
0.000196147
-1.51258e-06
0.000196453
-3.00241e-06
0.000196901
-4.30408e-06
0.000197478
-5.46653e-06
0.000198172
-6.51419e-06
0.000198973
-7.46318e-06
0.000199872
-8.3269e-06
0.00020086
-9.11643e-06
0.00020193
-9.84069e-06
0.000203075
-1.05069e-05
0.00020429
-1.1121e-05
0.000205568
-1.1688e-05
0.000206905
-1.2212e-05
0.000208296
-1.26966e-05
0.000209737
-1.31449e-05
0.000211224
-1.35592e-05
0.000212753
-1.3942e-05
0.00021432
-1.4295e-05
0.000215923
-1.462e-05
0.000217557
-1.49183e-05
0.000219221
-1.51912e-05
0.000220911
-1.54399e-05
0.000222625
-1.56653e-05
0.00022436
-1.58682e-05
0.000226113
-1.60493e-05
0.000227881
-1.62094e-05
0.000229664
-1.6349e-05
0.000231457
-1.64687e-05
0.00023326
-1.65688e-05
0.000235069
-1.66498e-05
0.000236883
-1.67121e-05
0.000238699
-1.6756e-05
0.000240516
-1.67816e-05
0.000242331
-1.67894e-05
0.000244143
-1.67794e-05
0.000245949
-1.67519e-05
0.000247748
-1.67069e-05
0.000249538
-1.66445e-05
0.000251317
-1.65649e-05
0.000253083
-1.6468e-05
0.000254835
-1.63539e-05
0.00025657
-1.62224e-05
0.000258288
-1.60735e-05
0.000259986
-1.59072e-05
0.000261663
-1.57231e-05
0.000263318
-1.55211e-05
0.000264948
-1.5301e-05
0.000266554
-1.50624e-05
0.000268132
-1.48051e-05
0.000269683
-1.45285e-05
0.000271206
-1.42322e-05
0.000272698
-1.39158e-05
0.00027416
-1.35786e-05
0.00027559
-1.322e-05
0.00027699
-1.28394e-05
0.000278357
-1.2436e-05
0.000279693
-1.20091e-05
0.000280999
-1.1558e-05
0.000282275
-1.10817e-05
0.000283523
-1.05797e-05
0.000284746
-1.00512e-05
0.000285946
-9.49549e-06
0.000287128
-8.91223e-06
0.000288296
-8.30111e-06
0.000289456
-7.66219e-06
0.000290616
-6.99586e-06
0.000291784
-6.30302e-06
0.000292969
-5.58519e-06
0.000294184
-4.8446e-06
0.000295439
-4.08432e-06
0.000296749
-3.30837e-06
0.000298127
-2.52174e-06
0.000299589
-1.73034e-06
0.000301147
-9.40613e-07
0.000302812
-1.6038e-07
0.000304592
6.00858e-07
0.000306492
1.33315e-06
0.000308512
2.02643e-06
0.000310647
2.67065e-06
0.000312887
3.25821e-06
3.78338e-06
0.000315217
0.000209878
-1.66478e-06
0.000210194
-3.31808e-06
0.000210657
-4.76754e-06
0.000211255
-6.06418e-06
0.000211975
-7.23449e-06
0.000212808
-8.29555e-06
0.000213743
-9.26172e-06
0.000214772
-1.01451e-05
0.000215886
-1.09554e-05
0.00021708
-1.17006e-05
0.000218347
-1.23875e-05
0.00021968
-1.30214e-05
0.000221076
-1.3607e-05
0.000222527
-1.41483e-05
0.000224031
-1.46486e-05
0.000225583
-1.51109e-05
0.000227179
-1.55376e-05
0.000228815
-1.59308e-05
0.000230488
-1.62925e-05
0.000232194
-1.66242e-05
0.00023393
-1.69273e-05
0.000235694
-1.72031e-05
0.000237482
-1.74527e-05
0.000239291
-1.7677e-05
0.000241118
-1.78768e-05
0.000242962
-1.8053e-05
0.00024482
-1.82062e-05
0.000246688
-1.8337e-05
0.000248566
-1.84459e-05
0.00025045
-1.85334e-05
0.000252338
-1.85999e-05
0.000254228
-1.86457e-05
0.000256118
-1.86713e-05
0.000258005
-1.86768e-05
0.000259889
-1.86626e-05
0.000261766
-1.86288e-05
0.000263635
-1.85756e-05
0.000265494
-1.85032e-05
0.000267341
-1.84117e-05
0.000269174
-1.83011e-05
0.000270992
-1.81716e-05
0.000272793
-1.8023e-05
0.000274575
-1.78554e-05
0.000276337
-1.76688e-05
0.000278077
-1.74631e-05
0.000279794
-1.7238e-05
0.000281486
-1.69935e-05
0.000283154
-1.67294e-05
0.000284794
-1.64453e-05
0.000286407
-1.61412e-05
0.000287991
-1.58166e-05
0.000289547
-1.54712e-05
0.000291073
-1.51046e-05
0.00029257
-1.47166e-05
0.000294037
-1.43067e-05
0.000295476
-1.38745e-05
0.000296886
-1.34196e-05
0.00029827
-1.29417e-05
0.000299629
-1.24406e-05
0.000300966
-1.1916e-05
0.000302282
-1.13679e-05
0.000303583
-1.07963e-05
0.000304873
-1.02015e-05
0.000306156
-9.58424e-06
0.000307439
-8.94527e-06
0.000308729
-8.28592e-06
0.000310034
-7.60796e-06
0.000311363
-6.91369e-06
0.000312724
-6.20602e-06
0.000314128
-5.4885e-06
0.000315585
-4.76536e-06
0.000317105
-4.04149e-06
0.000318697
-3.32237e-06
0.00032037
-2.61399e-06
0.000322133
-1.92271e-06
0.000323988
-1.25441e-06
0.000325937
-6.15592e-07
0.000327975
-1.19691e-08
0.000330097
5.48326e-07
0.000332293
1.06227e-06
1.52623e-06
0.000334551
0.000224571
-1.82141e-06
0.000224896
-3.64313e-06
0.000225374
-5.24586e-06
0.000225992
-6.68206e-06
0.000226738
-7.98018e-06
0.000227601
-9.15827e-06
0.000228571
-1.02316e-05
0.000229639
-1.12131e-05
0.000230797
-1.21135e-05
0.000232038
-1.29416e-05
0.000233356
-1.37045e-05
0.000234743
-1.44084e-05
0.000236194
-1.50584e-05
0.000237705
-1.5659e-05
0.000239271
-1.62137e-05
0.000240886
-1.67259e-05
0.000242547
-1.71984e-05
0.00024425
-1.76334e-05
0.000245991
-1.80331e-05
0.000247766
-1.83992e-05
0.000249573
-1.87335e-05
0.000251407
-1.90372e-05
0.000253266
-1.93116e-05
0.000255147
-1.95577e-05
0.000257047
-1.97766e-05
0.000258964
-1.9969e-05
0.000260893
-2.01358e-05
0.000262834
-2.02776e-05
0.000264784
-2.0395e-05
0.000266739
-2.04885e-05
0.000268698
-2.05588e-05
0.000270659
-2.0606e-05
0.000272619
-2.06308e-05
0.000274576
-2.06334e-05
0.000276528
-2.06141e-05
0.000278472
-2.05733e-05
0.000280408
-2.05111e-05
0.000282333
-2.04277e-05
0.000284245
-2.03234e-05
0.000286142
-2.01983e-05
0.000288023
-2.00525e-05
0.000289887
-1.9886e-05
0.000291731
-1.96991e-05
0.000293554
-1.94916e-05
0.000295354
-1.92636e-05
0.000297132
-1.90151e-05
0.000298884
-1.87461e-05
0.000300612
-1.84564e-05
0.000302312
-1.8146e-05
0.000303986
-1.78148e-05
0.000305633
-1.74628e-05
0.000307251
-1.70897e-05
0.000308842
-1.66955e-05
0.000310406
-1.628e-05
0.000311943
-1.58433e-05
0.000313454
-1.53853e-05
0.00031494
-1.4906e-05
0.000316404
-1.44055e-05
0.000317847
-1.3884e-05
0.000319273
-1.33419e-05
0.000320685
-1.27796e-05
0.000322087
-1.21978e-05
0.000323483
-1.15975e-05
0.000324878
-1.09798e-05
0.000326279
-1.03463e-05
0.000327692
-9.69885e-06
0.000329124
-9.03965e-06
0.000330582
-8.3714e-06
0.000332073
-7.69719e-06
0.000333605
-7.02057e-06
0.000335185
-6.34547e-06
0.00033682
-5.67621e-06
0.000338515
-5.01741e-06
0.000340275
-4.37385e-06
0.000342103
-3.7504e-06
0.000344
-3.15177e-06
0.000345967
-2.58252e-06
0.000348002
-2.04665e-06
0.000350097
-1.54693e-06
0.000352245
-1.08583e-06
-6.64623e-07
0.000354436
0.000240292
-1.98239e-06
0.000240626
-3.9772e-06
0.000241119
-5.73837e-06
0.000241756
-7.31926e-06
0.000242526
-8.75012e-06
0.000243418
-1.005e-05
0.000244421
-1.12349e-05
0.000245527
-1.23188e-05
0.000246727
-1.33132e-05
0.000248013
-1.42277e-05
0.000249379
-1.507e-05
0.000250818
-1.58469e-05
0.000252324
-1.6564e-05
0.000253891
-1.72262e-05
0.000255515
-1.78376e-05
0.000257191
-1.84017e-05
0.000258915
-1.89215e-05
0.000260681
-1.93997e-05
0.000262487
-1.98387e-05
0.000264329
-2.02404e-05
0.000266202
-2.06066e-05
0.000268104
-2.09389e-05
0.000270032
-2.12386e-05
0.000271981
-2.15069e-05
0.00027395
-2.1745e-05
0.000275935
-2.19537e-05
0.000277933
-2.21339e-05
0.000279942
-2.22865e-05
0.00028196
-2.24121e-05
0.000283983
-2.25113e-05
0.000286009
-2.25847e-05
0.000288036
-2.26328e-05
0.000290062
-2.26561e-05
0.000292084
-2.2655e-05
0.0002941
-2.26299e-05
0.000296108
-2.25812e-05
0.000298106
-2.25091e-05
0.000300093
-2.2414e-05
0.000302066
-2.2296e-05
0.000304023
-2.21556e-05
0.000305964
-2.19928e-05
0.000307886
-2.18078e-05
0.000309788
-2.16009e-05
0.000311669
-2.13721e-05
0.000313527
-2.11217e-05