/*--------------------------------*- C++ -*----------------------------------*\
| =========                 |                                                 |
| \\      /  F ield         | OpenFOAM: The Open Source CFD Toolbox           |
|  \\    /   O peration     | Version:  2106                                  |
|   \\  /    A nd           | Website:  www.openfoam.com                      |
|    \\/     M anipulation  |                                                 |
\*---------------------------------------------------------------------------*/
FoamFile
{
    version     2.0;
    format      ascii;
    arch        "LSB;label=32;scalar=64";
    class       volScalarField;
    location    "7.4";
    object      T;
}
// * * * * * * * * * * * * * * * * * * * * * * * * * * * * * * * * * * * * * //

dimensions      [0 0 0 1 0 0 0];

internalField   nonuniform List<scalar> 
12013
(
300.003
300.011
300.018
300.026
300.034
300.042
300.051
300.06
300.069
300.079
300.089
300.1
300.111
300.122
300.134
300.146
300.158
300.171
300.185
300.199
300.213
300.228
300.243
300.259
300.275
300.292
300.309
300.327
300.346
300.365
300.384
300.405
300.425
300.447
300.469
300.492
300.515
300.539
300.564
300.589
300.615
300.642
300.67
300.698
300.728
300.758
300.789
300.821
300.853
300.887
300.922
300.957
300.994
301.031
301.07
301.11
301.151
301.193
301.236
301.281
301.327
301.375
301.424
301.474
301.527
301.581
301.637
301.695
301.755
301.818
301.883
301.951
302.023
302.098
302.178
302.262
302.353
302.451
302.56
302.684
302.831
300.003
300.011
300.018
300.026
300.034
300.042
300.051
300.06
300.069
300.079
300.089
300.1
300.111
300.122
300.134
300.146
300.158
300.171
300.185
300.199
300.213
300.228
300.243
300.259
300.275
300.292
300.309
300.327
300.346
300.365
300.384
300.405
300.425
300.447
300.469
300.492
300.515
300.539
300.564
300.589
300.615
300.642
300.67
300.698
300.728
300.758
300.789
300.821
300.853
300.887
300.921
300.957
300.994
301.031
301.07
301.11
301.15
301.193
301.236
301.281
301.327
301.374
301.423
301.474
301.526
301.58
301.636
301.694
301.754
301.816
301.882
301.949
302.021
302.095
302.174
302.258
302.347
302.443
302.547
302.662
302.789
300.003
300.011
300.018
300.026
300.034
300.042
300.051
300.06
300.069
300.079
300.089
300.1
300.111
300.122
300.134
300.146
300.158
300.171
300.185
300.199
300.213
300.228
300.243
300.259
300.275
300.292
300.309
300.327
300.346
300.365
300.384
300.405
300.425
300.447
300.469
300.491
300.515
300.539
300.564
300.589
300.615
300.642
300.67
300.698
300.727
300.758
300.788
300.82
300.853
300.887
300.921
300.957
300.993
301.031
301.069
301.109
301.15
301.192
301.235
301.28
301.326
301.373
301.422
301.472
301.524
301.578
301.634
301.692
301.751
301.813
301.878
301.945
302.015
302.089
302.166
302.248
302.334
302.426
302.523
302.627
302.734
300.003
300.011
300.018
300.026
300.034
300.042
300.051
300.06
300.069
300.079
300.089
300.1
300.111
300.122
300.134
300.146
300.158
300.171
300.185
300.199
300.213
300.228
300.243
300.259
300.275
300.292
300.309
300.327
300.346
300.365
300.384
300.404
300.425
300.447
300.469
300.491
300.515
300.539
300.563
300.589
300.615
300.642
300.67
300.698
300.727
300.757
300.788
300.82
300.852
300.886
300.921
300.956
300.992
301.03
301.068
301.108
301.149
301.191
301.234
301.278
301.324
301.371
301.42
301.47
301.522
301.575
301.631
301.688
301.747
301.808
301.872
301.938
302.007
302.079
302.154
302.233
302.315
302.401
302.491
302.583
302.677
300.003
300.011
300.018
300.026
300.034
300.042
300.051
300.06
300.069
300.079
300.089
300.1
300.111
300.122
300.134
300.146
300.158
300.171
300.185
300.199
300.213
300.228
300.243
300.259
300.275
300.292
300.309
300.327
300.346
300.365
300.384
300.404
300.425
300.447
300.469
300.491
300.515
300.539
300.563
300.589
300.615
300.642
300.669
300.698
300.727
300.757
300.788
300.819
300.852
300.885
300.92
300.955
300.991
301.029
301.067
301.107
301.147
301.189
301.232
301.276
301.322
301.369
301.417
301.467
301.518
301.571
301.626
301.682
301.74
301.801
301.863
301.928
301.995
302.065
302.137
302.212
302.29
302.37
302.452
302.535
302.618
300.003
300.011
300.018
300.026
300.034
300.042
300.051
300.06
300.069
300.079
300.089
300.1
300.111
300.122
300.134
300.146
300.158
300.171
300.185
300.198
300.213
300.228
300.243
300.259
300.275
300.292
300.309
300.327
300.345
300.364
300.384
300.404
300.425
300.446
300.468
300.491
300.514
300.538
300.563
300.588
300.614
300.641
300.669
300.697
300.726
300.756
300.787
300.818
300.851
300.884
300.919
300.954
300.99
301.027
301.065
301.105
301.145
301.187
301.229
301.273
301.319
301.365
301.413
301.462
301.513
301.565
301.619
301.675
301.732
301.791
301.852
301.915
301.98
302.047
302.116
302.187
302.26
302.334
302.409
302.484
302.558
300.003
300.011
300.018
300.026
300.034
300.042
300.051
300.06
300.069
300.079
300.089
300.1
300.111
300.122
300.134
300.146
300.158
300.171
300.185
300.198
300.213
300.228
300.243
300.259
300.275
300.292
300.309
300.327
300.345
300.364
300.384
300.404
300.425
300.446
300.468
300.491
300.514
300.538
300.562
300.588
300.614
300.641
300.668
300.696
300.725
300.755
300.786
300.817
300.85
300.883
300.917
300.952
300.988
301.025
301.063
301.102
301.142
301.184
301.226
301.27
301.314
301.36
301.408
301.456
301.506
301.558
301.611
301.665
301.721
301.779
301.838
301.899
301.961
302.025
302.091
302.158
302.226
302.294
302.363
302.431
302.499
300.003
300.011
300.018
300.026
300.034
300.042
300.051
300.06
300.069
300.079
300.089
300.1
300.111
300.122
300.134
300.146
300.158
300.171
300.185
300.198
300.213
300.227
300.243
300.258
300.275
300.292
300.309
300.327
300.345
300.364
300.384
300.404
300.424
300.446
300.468
300.49
300.513
300.537
300.562
300.587
300.613
300.64
300.667
300.695
300.724
300.754
300.785
300.816
300.848
300.881
300.915
300.95
300.986
301.023
301.06
301.099
301.139
301.18
301.222
301.265
301.309
301.354
301.401
301.449
301.498
301.548
301.6
301.653
301.707
301.763
301.82
301.879
301.939
302
302.061
302.124
302.188
302.251
302.314
302.377
302.438
300.003
300.011
300.018
300.026
300.034
300.042
300.051
300.06
300.069
300.079
300.089
300.1
300.111
300.122
300.133
300.146
300.158
300.171
300.184
300.198
300.213
300.227
300.243
300.258
300.275
300.291
300.309
300.326
300.345
300.364
300.383
300.403
300.424
300.445
300.467
300.49
300.513
300.537
300.561
300.586
300.612
300.639
300.666
300.694
300.723
300.753
300.783
300.814
300.846
300.879
300.913
300.947
300.983
301.019
301.057
301.095
301.135
301.175
301.216
301.259
301.302
301.347
301.393
301.44
301.488
301.537
301.587
301.639
301.691
301.745
301.8
301.856
301.913
301.971
302.029
302.088
302.147
302.205
302.264
302.321
302.378
300.003
300.011
300.018
300.026
300.034
300.042
300.051
300.06
300.069
300.079
300.089
300.1
300.11
300.122
300.133
300.145
300.158
300.171
300.184
300.198
300.212
300.227
300.242
300.258
300.274
300.291
300.308
300.326
300.344
300.363
300.383
300.403
300.423
300.445
300.467
300.489
300.512
300.536
300.56
300.585
300.611
300.638
300.665
300.693
300.721
300.751
300.781
300.812
300.844
300.876
300.91
300.944
300.979
301.015
301.052
301.09
301.129
301.169
301.21
301.251
301.294
301.338
301.383
301.429
301.475
301.523
301.572
301.622
301.673
301.724
301.777
301.83
301.884
301.938
301.993
302.048
302.103
302.157
302.212
302.265
302.317
300.003
300.011
300.018
300.026
300.034
300.042
300.051
300.06
300.069
300.079
300.089
300.1
300.11
300.122
300.133
300.145
300.158
300.171
300.184
300.198
300.212
300.227
300.242
300.258
300.274
300.291
300.308
300.326
300.344
300.363
300.382
300.402
300.423
300.444
300.466
300.488
300.511
300.535
300.559
300.584
300.61
300.636
300.663
300.691
300.719
300.748
300.778
300.809
300.841
300.873
300.906
300.94
300.975
301.011
301.047
301.084
301.123
301.162
301.202
301.243
301.285
301.327
301.371
301.416
301.461
301.507
301.554
301.602
301.651
301.7
301.75
301.801
301.852
301.903
301.955
302.006
302.057
302.108
302.158
302.207
302.256
300.003
300.011
300.018
300.026
300.034
300.042
300.051
300.06
300.069
300.079
300.089
300.099
300.11
300.122
300.133
300.145
300.158
300.171
300.184
300.198
300.212
300.227
300.242
300.258
300.274
300.29
300.308
300.325
300.344
300.362
300.382
300.402
300.422
300.443
300.465
300.487
300.51
300.534
300.558
300.583
300.608
300.634
300.661
300.689
300.717
300.746
300.775
300.806
300.837
300.869
300.902
300.935
300.97
301.005
301.041
301.077
301.115
301.153
301.193
301.233
301.273
301.315
301.357
301.401
301.444
301.489
301.534
301.58
301.627
301.674
301.721
301.769
301.817
301.865
301.914
301.962
302.009
302.056
302.103
302.149
302.194
300.003
300.011
300.018
300.026
300.034
300.042
300.051
300.06
300.069
300.079
300.089
300.099
300.11
300.121
300.133
300.145
300.158
300.17
300.184
300.198
300.212
300.226
300.242
300.257
300.273
300.29
300.307
300.325
300.343
300.362
300.381
300.401
300.421
300.442
300.464
300.486
300.509
300.532
300.556
300.581
300.606
300.632
300.659
300.686
300.714
300.743
300.772
300.802
300.833
300.864
300.897
300.93
300.963
300.998
301.033
301.069
301.106
301.143
301.182
301.221
301.26
301.301
301.342
301.383
301.426
301.469
301.512
301.556
301.6
301.645
301.69
301.735
301.78
301.825
301.87
301.915
301.96
302.004
302.047
302.09
302.131
300.003
300.011
300.018
300.026
300.034
300.042
300.051
300.06
300.069
300.079
300.089
300.099
300.11
300.121
300.133
300.145
300.157
300.17
300.184
300.197
300.211
300.226
300.241
300.257
300.273
300.289
300.307
300.324
300.342
300.361
300.38
300.4
300.42
300.441
300.462
300.484
300.507
300.53
300.554
300.579
300.604
300.629
300.656
300.683
300.71
300.739
300.768
300.797
300.828
300.859
300.891
300.923
300.956
300.99
301.025
301.06
301.096
301.132
301.169
301.207
301.246
301.285
301.324
301.364
301.405
301.446
301.487
301.529
301.571
301.614
301.656
301.699
301.741
301.783
301.825
301.867
301.909
301.95
301.99
302.03
302.069
300.003
300.011
300.018
300.026
300.034
300.042
300.051
300.06
300.069
300.079
300.089
300.099
300.11
300.121
300.133
300.145
300.157
300.17
300.183
300.197
300.211
300.226
300.241
300.256
300.272
300.289
300.306
300.323
300.341
300.36
300.379
300.399
300.419
300.44
300.461
300.483
300.505
300.528
300.552
300.576
300.601
300.626
300.652
300.679
300.706
300.734
300.763
300.792
300.822
300.853
300.884
300.915
300.948
300.981
301.015
301.049
301.084
301.119
301.155
301.192
301.229
301.266
301.304
301.343
301.382
301.421
301.46
301.5
301.54
301.58
301.62
301.66
301.7
301.739
301.779
301.818
301.857
301.895
301.932
301.969
302.006
300.003
300.011
300.018
300.026
300.034
300.042
300.051
300.06
300.069
300.079
300.089
300.099
300.11
300.121
300.133
300.144
300.157
300.17
300.183
300.197
300.211
300.225
300.24
300.256
300.272
300.288
300.305
300.322
300.34
300.359
300.378
300.397
300.417
300.438
300.459
300.481
300.503
300.526
300.549
300.573
300.598
300.623
300.648
300.675
300.702
300.729
300.757
300.786
300.815
300.845
300.876
300.907
300.938
300.97
301.003
301.037
301.07
301.105
301.139
301.175
301.21
301.246
301.283
301.32
301.357
301.394
301.431
301.469
301.507
301.544
301.582
301.619
301.657
301.694
301.731
301.767
301.803
301.839
301.874
301.909
301.943
300.003
300.011
300.018
300.026
300.034
300.042
300.05
300.059
300.069
300.078
300.088
300.099
300.11
300.121
300.132
300.144
300.157
300.169
300.182
300.196
300.21
300.225
300.24
300.255
300.271
300.287
300.304
300.321
300.339
300.357
300.376
300.396
300.416
300.436
300.457
300.478
300.5
300.523
300.546
300.57
300.594
300.619
300.644
300.67
300.696
300.723
300.751
300.779
300.808
300.837
300.866
300.897
300.927
300.959
300.99
301.023
301.055
301.088
301.122
301.156
301.19
301.225
301.259
301.294
301.33
301.365
301.4
301.436
301.471
301.507
301.542
301.577
301.612
301.647
301.682
301.716
301.749
301.783
301.815
301.848
301.879
300.003
300.011
300.018
300.026
300.033
300.042
300.05
300.059
300.069
300.078
300.088
300.099
300.109
300.12
300.132
300.144
300.156
300.169
300.182
300.195
300.209
300.224
300.239
300.254
300.27
300.286
300.303
300.32
300.338
300.356
300.375
300.394
300.413
300.434
300.454
300.476
300.497
300.52
300.542
300.566
300.589
300.614
300.639
300.664
300.69
300.716
300.743
300.771
300.799
300.827
300.856
300.886
300.915
300.946
300.976
301.007
301.039
301.071
301.103
301.135
301.168
301.201
301.234
301.267
301.301
301.334
301.368
301.401
301.434
301.468
301.501
301.534
301.567
301.599
301.631
301.663
301.695
301.726
301.756
301.786
301.816
300.003
300.01
300.018
300.025
300.033
300.042
300.05
300.059
300.068
300.078
300.088
300.098
300.109
300.12
300.132
300.143
300.156
300.168
300.181
300.195
300.209
300.223
300.238
300.253
300.269
300.285
300.302
300.319
300.336
300.354
300.373
300.392
300.411
300.431
300.451
300.472
300.494
300.516
300.538
300.561
300.584
300.608
300.633
300.658
300.683
300.709
300.735
300.762
300.789
300.817
300.845
300.873
300.902
300.931
300.961
300.991
301.021
301.051
301.082
301.113
301.144
301.175
301.207
301.238
301.27
301.302
301.333
301.365
301.396
301.427
301.458
301.489
301.52
301.55
301.58
301.61
301.64
301.669
301.697
301.725
301.753
300.003
300.01
300.018
300.025
300.033
300.042
300.05
300.059
300.068
300.078
300.088
300.098
300.109
300.12
300.131
300.143
300.155
300.168
300.181
300.194
300.208
300.222
300.237
300.252
300.268
300.284
300.3
300.317
300.334
300.352
300.37
300.389
300.408
300.428
300.448
300.469
300.49
300.511
300.533
300.556
300.579
300.602
300.626
300.65
300.675
300.7
300.726
300.752
300.778
300.805
300.832
300.859
300.887
300.915
300.944
300.972
301.001
301.03
301.06
301.089
301.119
301.148
301.178
301.208
301.238
301.268
301.297
301.327
301.356
301.386
301.415
301.444
301.473
301.501
301.529
301.557
301.584
301.611
301.638
301.664
301.69
300.003
300.01
300.018
300.025
300.033
300.041
300.05
300.059
300.068
300.078
300.087
300.098
300.108
300.119
300.131
300.142
300.154
300.167
300.18
300.193
300.207
300.221
300.236
300.251
300.266
300.282
300.298
300.315
300.332
300.35
300.368
300.386
300.405
300.425
300.444
300.465
300.485
300.506
300.528
300.55
300.572
300.595
300.619
300.642
300.666
300.691
300.716
300.741
300.766
300.792
300.818
300.845
300.871
300.898
300.925
300.953
300.98
301.008
301.036
301.064
301.092
301.12
301.148
301.176
301.205
301.233
301.26
301.288
301.316
301.343
301.371
301.398
301.424
301.451
301.477
301.503
301.529
301.554
301.579
301.603
301.627
300.003
300.01
300.018
300.025
300.033
300.041
300.05
300.059
300.068
300.077
300.087
300.097
300.108
300.119
300.13
300.142
300.154
300.166
300.179
300.192
300.206
300.22
300.234
300.249
300.264
300.28
300.296
300.313
300.33
300.347
300.365
300.383
300.402
300.421
300.44
300.46
300.48
300.501
300.522
300.544
300.565
300.588
300.61
300.633
300.657
300.68
300.704
300.729
300.753
300.778
300.803
300.829
300.854
300.88
300.906
300.932
300.958
300.985
301.011
301.038
301.064
301.091
301.117
301.144
301.17
301.196
301.223
301.249
301.275
301.3
301.326
301.351
301.376
301.401
301.425
301.45
301.473
301.497
301.52
301.543
301.566
300.003
300.01
300.018
300.025
300.033
300.041
300.05
300.058
300.067
300.077
300.087
300.097
300.107
300.118
300.129
300.141
300.153
300.165
300.178
300.191
300.205
300.218
300.233
300.247
300.262
300.278
300.294
300.31
300.327
300.344
300.361
300.379
300.398
300.416
300.435
300.455
300.475
300.495
300.515
300.536
300.558
300.579
300.601
300.623
300.646
300.669
300.692
300.715
300.739
300.763
300.787
300.811
300.836
300.86
300.885
300.91
300.935
300.96
300.985
301.01
301.035
301.06
301.085
301.11
301.135
301.16
301.184
301.209
301.233
301.257
301.281
301.304
301.328
301.351
301.374
301.396
301.419
301.441
301.462
301.484
301.505
300.003
300.01
300.018
300.025
300.033
300.041
300.049
300.058
300.067
300.077
300.086
300.096
300.107
300.117
300.129
300.14
300.152
300.164
300.177
300.19
300.203
300.217
300.231
300.245
300.26
300.276
300.291
300.307
300.324
300.341
300.358
300.375
300.393
300.411
300.43
300.449
300.468
300.488
300.508
300.528
300.549
300.57
300.591
300.613
300.635
300.657
300.679
300.701
300.724
300.747
300.77
300.793
300.817
300.84
300.863
300.887
300.911
300.934
300.958
300.982
301.005
301.029
301.052
301.076
301.099
301.122
301.145
301.168
301.191
301.213
301.236
301.258
301.28
301.301
301.323
301.344
301.364
301.385
301.405
301.425
301.445
300.003
300.01
300.017
300.025
300.033
300.041
300.049
300.058
300.067
300.076
300.086
300.096
300.106
300.117
300.128
300.139
300.151
300.163
300.175
300.188
300.202
300.215
300.229
300.243
300.258
300.273
300.288
300.304
300.32
300.337
300.354
300.371
300.388
300.406
300.424
300.443
300.462
300.481
300.5
300.52
300.54
300.56
300.581
300.601
300.622
300.644
300.665
300.687
300.708
300.73
300.752
300.774
300.796
300.819
300.841
300.863
300.886
300.908
300.93
300.953
300.975
300.997
301.019
301.041
301.063
301.085
301.106
301.128
301.149
301.17
301.191
301.212
301.232
301.252
301.272
301.292
301.311
301.33
301.349
301.368
301.386
300.003
300.01
300.017
300.025
300.032
300.04
300.049
300.057
300.066
300.076
300.085
300.095
300.105
300.116
300.127
300.138
300.15
300.162
300.174
300.187
300.2
300.213
300.227
300.241
300.255
300.27
300.285
300.301
300.317
300.333
300.349
300.366
300.383
300.4
300.418
300.436
300.454
300.473
300.492
300.511
300.53
300.55
300.569
300.589
300.61
300.63
300.65
300.671
300.692
300.713
300.734
300.755
300.776
300.797
300.818
300.839
300.86
300.881
300.902
300.923
300.944
300.965
300.986
301.007
301.027
301.047
301.068
301.088
301.108
301.127
301.147
301.166
301.185
301.204
301.222
301.241
301.259
301.277
301.294
301.312
301.329
300.003
300.01
300.017
300.025
300.032
300.04
300.048
300.057
300.066
300.075
300.084
300.094
300.104
300.115
300.126
300.137
300.148
300.16
300.172
300.185
300.198
300.211
300.224
300.238
300.252
300.267
300.282
300.297
300.312
300.328
300.344
300.361
300.377
300.394
300.411
300.429
300.447
300.465
300.483
300.501
300.52
300.539
300.558
300.577
300.596
300.616
300.635
300.655
300.675
300.694
300.714
300.734
300.754
300.774
300.794
300.814
300.834
300.854
300.874
300.894
300.914
300.933
300.953
300.972
300.991
301.01
301.029
301.048
301.067
301.085
301.103
301.121
301.139
301.157
301.174
301.191
301.208
301.225
301.241
301.258
301.274
300.003
300.01
300.017
300.024
300.032
300.04
300.048
300.056
300.065
300.074
300.084
300.094
300.104
300.114
300.125
300.136
300.147
300.159
300.171
300.183
300.196
300.209
300.222
300.235
300.249
300.264
300.278
300.293
300.308
300.323
300.339
300.355
300.371
300.388
300.404
300.421
300.438
300.456
300.473
300.491
300.509
300.527
300.545
300.564
300.582
300.601
300.62
300.638
300.657
300.676
300.695
300.714
300.733
300.752
300.771
300.79
300.808
300.827
300.846
300.865
300.883
300.902
300.92
300.938
300.956
300.974
300.992
301.009
301.027
301.044
301.061
301.078
301.095
301.111
301.127
301.143
301.159
301.175
301.19
301.205
301.22
300.003
300.01
300.017
300.024
300.032
300.039
300.048
300.056
300.065
300.074
300.083
300.093
300.103
300.113
300.123
300.134
300.145
300.157
300.169
300.181
300.193
300.206
300.219
300.232
300.246
300.26
300.274
300.289
300.303
300.318
300.334
300.349
300.365
300.381
300.397
300.413
300.43
300.447
300.464
300.481
300.498
300.515
300.533
300.55
300.568
300.586
300.604
300.622
300.639
300.657
300.675
300.693
300.711
300.729
300.747
300.765
300.783
300.801
300.818
300.836
300.853
300.871
300.888
300.905
300.922
300.939
300.955
300.972
300.988
301.004
301.02
301.036
301.052
301.067
301.082
301.097
301.112
301.127
301.141
301.155
301.169
300.003
300.01
300.017
300.024
300.031
300.039
300.047
300.055
300.064
300.073
300.082
300.092
300.101
300.112
300.122
300.133
300.144
300.155
300.167
300.179
300.191
300.203
300.216
300.229
300.242
300.256
300.27
300.284
300.298
300.313
300.328
300.343
300.358
300.374
300.389
300.405
300.421
300.437
300.454
300.47
300.487
300.503
300.52
300.537
300.554
300.571
300.588
300.605
300.622
300.639
300.656
300.673
300.69
300.707
300.724
300.741
300.758
300.774
300.791
300.808
300.824
300.84
300.857
300.873
300.889
300.905
300.92
300.936
300.951
300.966
300.981
300.996
301.011
301.025
301.039
301.053
301.067
301.081
301.095
301.108
301.121
300.003
300.01
300.017
300.024
300.031
300.039
300.047
300.055
300.063
300.072
300.081
300.091
300.1
300.11
300.121
300.131
300.142
300.153
300.164
300.176
300.188
300.2
300.213
300.226
300.239
300.252
300.266
300.279
300.293
300.307
300.322
300.337
300.351
300.366
300.381
300.397
300.412
300.428
300.443
300.459
300.475
300.491
300.507
300.523
300.539
300.556
300.572
300.588
300.604
300.621
300.637
300.653
300.669
300.685
300.702
300.718
300.733
300.749
300.765
300.781
300.796
300.812
300.827
300.842
300.857
300.872
300.887
300.901
300.916
300.93
300.944
300.958
300.972
300.986
300.999
301.012
301.025
301.038
301.051
301.064
301.076
300.003
300.01
300.016
300.023
300.031
300.038
300.046
300.054
300.063
300.071
300.08
300.09
300.099
300.109
300.119
300.129
300.14
300.151
300.162
300.174
300.185
300.197
300.21
300.222
300.235
300.248
300.261
300.275
300.288
300.302
300.316
300.33
300.344
300.359
300.374
300.388
300.403
300.418
300.433
300.449
300.464
300.479
300.495
300.51
300.526
300.541
300.557
300.572
300.588
300.603
300.619
300.634
300.649
300.665
300.68
300.695
300.71
300.725
300.74
300.755
300.77
300.784
300.799
300.813
300.827
300.841
300.855
300.869
300.883
300.896
300.91
300.923
300.936
300.949
300.961
300.974
300.986
300.998
301.01
301.022
301.034
300.003
300.01
300.016
300.023
300.03
300.038
300.046
300.054
300.062
300.07
300.079
300.088
300.098
300.108
300.117
300.128
300.138
300.149
300.16
300.171
300.183
300.194
300.206
300.219
300.231
300.244
300.257
300.27
300.283
300.296
300.31
300.324
300.338
300.352
300.366
300.38
300.395
300.409
300.424
300.438
300.453
300.468
300.483
300.497
300.512
300.527
300.542
300.557
300.572
300.586
300.601
300.616
300.631
300.645
300.66
300.674
300.689
300.703
300.717
300.731
300.745
300.759
300.773
300.786
300.8
300.813
300.826
300.839
300.852
300.865
300.878
300.89
300.902
300.915
300.927
300.938
300.95
300.962
300.973
300.984
300.995
300.003
300.009
300.016
300.023
300.03
300.037
300.045
300.053
300.061
300.07
300.078
300.087
300.097
300.106
300.116
300.126
300.136
300.147
300.158
300.169
300.18
300.192
300.203
300.215
300.227
300.24
300.252
300.265
300.278
300.291
300.304
300.318
300.331
300.345
300.358
300.372
300.386
300.4
300.414
300.428
300.443
300.457
300.471
300.485
300.5
300.514
300.528
300.542
300.557
300.571
300.585
300.599
300.613
300.627
300.641
300.655
300.669
300.682
300.696
300.709
300.722
300.736
300.749
300.762
300.774
300.787
300.8
300.812
300.824
300.837
300.849
300.86
300.872
300.884
300.895
300.906
300.918
300.929
300.939
300.95
300.96
300.003
300.009
300.016
300.023
300.03
300.037
300.044
300.052
300.06
300.069
300.077
300.086
300.095
300.105
300.114
300.124
300.134
300.145
300.155
300.166
300.177
300.189
300.2
300.212
300.224
300.236
300.248
300.261
300.273
300.286
300.299
300.312
300.325
300.338
300.352
300.365
300.378
300.392
300.406
300.419
300.433
300.447
300.461
300.474
300.488
300.502
300.516
300.529
300.543
300.557
300.57
300.584
300.597
300.611
300.624
300.637
300.65
300.664
300.676
300.689
300.702
300.715
300.727
300.74
300.752
300.764
300.776
300.788
300.8
300.811
300.823
300.834
300.845
300.856
300.867
300.878
300.889
300.899
300.91
300.92
300.93
300.003
300.009
300.016
300.022
300.029
300.036
300.044
300.052
300.06
300.068
300.076
300.085
300.094
300.103
300.113
300.123
300.133
300.143
300.153
300.164
300.175
300.186
300.197
300.209
300.22
300.232
300.244
300.256
300.269
300.281
300.294
300.306
300.319
300.332
300.345
300.358
300.371
300.385
300.398
300.411
300.424
300.438
300.451
300.465
300.478
300.491
300.504
300.518
300.531
300.544
300.557
300.57
300.583
300.596
300.609
300.622
300.635
300.647
300.66
300.672
300.684
300.697
300.709
300.721
300.732
300.744
300.756
300.767
300.778
300.789
300.801
300.811
300.822
300.833
300.843
300.854
300.864
300.874
300.884
300.894
300.903
300.003
300.009
300.015
300.022
300.029
300.036
300.043
300.051
300.059
300.067
300.076
300.084
300.093
300.102
300.112
300.121
300.131
300.141
300.151
300.162
300.173
300.184
300.195
300.206
300.217
300.229
300.241
300.253
300.265
300.277
300.289
300.302
300.314
300.327
300.34
300.352
300.365
300.378
300.391
300.404
300.417
300.43
300.443
300.456
300.469
300.482
300.495
300.508
300.521
300.534
300.546
300.559
300.572
300.584
300.597
300.609
300.621
300.633
300.646
300.658
300.669
300.681
300.693
300.704
300.716
300.727
300.738
300.75
300.76
300.771
300.782
300.792
300.803
300.813
300.823
300.833
300.843
300.853
300.863
300.872
300.881
300.003
300.009
300.015
300.022
300.029
300.036
300.043
300.051
300.058
300.066
300.075
300.083
300.092
300.101
300.11
300.12
300.13
300.14
300.15
300.16
300.171
300.181
300.192
300.204
300.215
300.226
300.238
300.25
300.262
300.274
300.286
300.298
300.31
300.323
300.335
300.348
300.36
300.373
300.386
300.398
300.411
300.424
300.436
300.449
300.462
300.475
300.487
300.5
300.512
300.525
300.537
300.55
300.562
300.574
300.587
300.599
300.611
300.623
300.634
300.646
300.658
300.669
300.68
300.692
300.703
300.714
300.725
300.736
300.746
300.757
300.767
300.777
300.788
300.798
300.808
300.817
300.827
300.836
300.846
300.855
300.864
300.003
300.009
300.015
300.022
300.028
300.035
300.043
300.05
300.058
300.066
300.074
300.083
300.091
300.1
300.109
300.119
300.129
300.138
300.148
300.159
300.169
300.18
300.191
300.202
300.213
300.224
300.236
300.247
300.259
300.271
300.283
300.295
300.307
300.319
300.332
300.344
300.356
300.369
300.381
300.394
300.406
300.419
300.431
300.444
300.456
300.469
300.481
300.494
300.506
300.518
300.531
300.543
300.555
300.567
300.579
300.591
300.603
300.614
300.626
300.637
300.649
300.66
300.671
300.682
300.693
300.704
300.715
300.725
300.736
300.746
300.756
300.767
300.776
300.786
300.796
300.806
300.815
300.824
300.833
300.842
300.851
300.003
300.009
300.015
300.022
300.028
300.035
300.042
300.05
300.058
300.065
300.074
300.082
300.091
300.1
300.109
300.118
300.128
300.138
300.148
300.158
300.168
300.179
300.189
300.2
300.211
300.223
300.234
300.246
300.257
300.269
300.281
300.293
300.305
300.317
300.329
300.342
300.354
300.366
300.379
300.391
300.403
300.416
300.428
300.441
300.453
300.465
300.478
300.49
300.502
300.514
300.526
300.538
300.55
300.562
300.574
300.586
300.598
300.609
300.621
300.632
300.643
300.654
300.665
300.676
300.687
300.698
300.708
300.719
300.729
300.739
300.75
300.759
300.769
300.779
300.789
300.798
300.807
300.817
300.826
300.835
300.843
300.003
300.009
300.015
300.021
300.028
300.035
300.042
300.05
300.057
300.065
300.073
300.082
300.09
300.099
300.108
300.118
300.127
300.137
300.147
300.157
300.168
300.178
300.189
300.2
300.211
300.222
300.233
300.245
300.256
300.268
300.28
300.292
300.304
300.316
300.328
300.34
300.353
300.365
300.377
300.39
300.402
300.414
300.427
300.439
300.451
300.464
300.476
300.488
300.5
300.512
300.524
300.536
300.548
300.56
300.572
300.584
300.595
300.607
300.618
300.629
300.641
300.652
300.663
300.674
300.684
300.695
300.705
300.716
300.726
300.736
300.746
300.756
300.766
300.776
300.785
300.794
300.804
300.813
300.822
300.831
300.84
303.026
303.155
303.233
303.305
303.369
303.42
303.455
303.495
303.535
303.572
303.603
303.638
303.673
303.707
303.741
303.774
303.805
303.832
303.862
303.892
303.921
303.95
303.98
304.009
304.038
304.067
304.095
304.123
304.151
304.178
304.205
304.232
304.258
304.284
304.31
304.336
304.362
304.387
304.412
304.437
304.462
304.486
304.511
304.539
304.565
304.59
304.614
304.639
304.665
304.69
304.715
304.737
304.762
304.787
304.812
304.838
304.864
304.89
304.915
304.939
304.96
304.983
305.007
305.031
305.056
305.081
305.105
305.13
305.155
305.179
305.203
305.226
305.25
305.274
305.297
305.32
305.344
305.367
305.389
305.414
305.442
305.468
305.491
305.514
305.535
305.556
305.58
305.607
305.631
305.653
305.673
305.697
305.723
305.746
305.77
305.797
305.821
305.843
305.868
305.892
305.912
305.937
305.957
305.98
306.005
306.032
306.056
306.075
306.097
306.117
306.139
306.163
306.188
306.213
306.236
306.253
306.275
306.298
306.321
306.342
306.357
306.377
306.397
306.417
306.436
306.45
306.467
306.484
306.501
306.517
306.532
306.546
306.558
306.57
306.58
306.589
306.596
306.602
306.606
306.608
306.609
306.607
306.604
306.598
306.59
306.58
306.567
306.551
306.531
306.507
306.477
306.444
306.41
306.371
306.326
306.274
306.217
306.12
306.032
305.92
305.774
302.925
303.039
303.127
303.202
303.268
303.323
303.369
303.413
303.455
303.494
303.531
303.567
303.603
303.638
303.672
303.706
303.738
303.769
303.799
303.83
303.86
303.89
303.92
303.95
303.979
304.008
304.037
304.065
304.093
304.121
304.149
304.176
304.203
304.229
304.256
304.282
304.308
304.334
304.359
304.385
304.41
304.435
304.461
304.487
304.514
304.539
304.564
304.589
304.615
304.64
304.665
304.689
304.714
304.739
304.764
304.79
304.816
304.841
304.867
304.891
304.914
304.937
304.961
304.985
305.01
305.035
305.06
305.084
305.109
305.133
305.158
305.182
305.205
305.229
305.253
305.277
305.3
305.324
305.347
305.372
305.399
305.424
305.448
305.471
305.494
305.516
305.54
305.565
305.59
305.612
305.634
305.658
305.683
305.707
305.731
305.757
305.782
305.805
305.829
305.853
305.875
305.899
305.92
305.944
305.969
305.995
306.018
306.039
306.061
306.082
306.104
306.128
306.153
306.178
306.2
306.22
306.241
306.264
306.287
306.308
306.325
306.344
306.365
306.385
306.404
306.419
306.436
306.453
306.47
306.486
306.501
306.515
306.528
306.54
306.55
306.559
306.566
306.572
306.576
306.579
306.58
306.578
306.575
306.57
306.562
306.551
306.538
306.522
306.502
306.478
306.448
306.415
306.38
306.34
306.294
306.24
306.179
306.085
305.991
305.874
305.715
302.843
302.942
303.028
303.104
303.17
303.228
303.28
303.327
303.372
303.414
303.453
303.492
303.529
303.565
303.601
303.635
303.669
303.701
303.733
303.764
303.795
303.826
303.856
303.887
303.917
303.946
303.975
304.004
304.033
304.061
304.089
304.117
304.144
304.171
304.198
304.224
304.251
304.277
304.303
304.329
304.355
304.38
304.406
304.433
304.459
304.485
304.51
304.536
304.562