/*--------------------------------*- C++ -*----------------------------------*\
| =========                 |                                                 |
| \\      /  F ield         | OpenFOAM: The Open Source CFD Toolbox           |
|  \\    /   O peration     | Version:  2106                                  |
|   \\  /    A nd           | Website:  www.openfoam.com                      |
|    \\/     M anipulation  |                                                 |
\*---------------------------------------------------------------------------*/
FoamFile
{
    version     2.0;
    format      ascii;
    arch        "LSB;label=32;scalar=64";
    class       volVectorField;
    location    "7.4";
    object      U;
}
// * * * * * * * * * * * * * * * * * * * * * * * * * * * * * * * * * * * * * //

dimensions      [0 1 -1 0 0 0 0];

internalField   nonuniform List<vector> 
12013
(
(0.100038 -1.05771e-05 0)
(0.100193 -1.95651e-05 0)
(0.100445 -2.79129e-05 0)
(0.10077 -3.56237e-05 0)
(0.101163 -4.28796e-05 0)
(0.101617 -4.97829e-05 0)
(0.102127 -5.63994e-05 0)
(0.102687 -6.27808e-05 0)
(0.103293 -6.8967e-05 0)
(0.103942 -7.49884e-05 0)
(0.104631 -8.08704e-05 0)
(0.105357 -8.66319e-05 0)
(0.106116 -9.22892e-05 0)
(0.106907 -9.78553e-05 0)
(0.107727 -0.000103341 0)
(0.108575 -0.000108754 0)
(0.109447 -0.000114101 0)
(0.110344 -0.000119388 0)
(0.111262 -0.000124618 0)
(0.1122 -0.000129793 0)
(0.113156 -0.000134916 0)
(0.11413 -0.000139987 0)
(0.11512 -0.000145005 0)
(0.116124 -0.00014997 0)
(0.117141 -0.000154879 0)
(0.11817 -0.000159731 0)
(0.11921 -0.000164521 0)
(0.120259 -0.000169247 0)
(0.121316 -0.000173903 0)
(0.12238 -0.000178485 0)
(0.12345 -0.000182986 0)
(0.124525 -0.0001874 0)
(0.125604 -0.000191719 0)
(0.126685 -0.000195937 0)
(0.127768 -0.000200043 0)
(0.128851 -0.000204027 0)
(0.129934 -0.000207879 0)
(0.131015 -0.000211587 0)
(0.132093 -0.000215138 0)
(0.133168 -0.000218517 0)
(0.134237 -0.000221707 0)
(0.1353 -0.000224691 0)
(0.136356 -0.000227448 0)
(0.137404 -0.000229957 0)
(0.138442 -0.000232192 0)
(0.139469 -0.000234126 0)
(0.140483 -0.000235726 0)
(0.141485 -0.000236957 0)
(0.142471 -0.000237778 0)
(0.143442 -0.000238143 0)
(0.144394 -0.000237999 0)
(0.145326 -0.000237284 0)
(0.146237 -0.000235928 0)
(0.147125 -0.000233848 0)
(0.147987 -0.000230948 0)
(0.148821 -0.000227114 0)
(0.149624 -0.000222211 0)
(0.150394 -0.00021608 0)
(0.151127 -0.000208526 0)
(0.151819 -0.000199316 0)
(0.152467 -0.000188162 0)
(0.153064 -0.000174712 0)
(0.153606 -0.000158523 0)
(0.154085 -0.00013904 0)
(0.154493 -0.000115551 0)
(0.15482 -8.71353e-05 0)
(0.155053 -5.25851e-05 0)
(0.155179 -1.02862e-05 0)
(0.155177 4.19713e-05 0)
(0.155023 0.000107327 0)
(0.154684 0.000190266 0)
(0.154117 0.000297391 0)
(0.153263 0.000438717 0)
(0.152038 0.000629951 0)
(0.150317 0.000896582 0)
(0.147918 0.00128143 0)
(0.144556 0.00185915 0)
(0.139755 0.0027679 0)
(0.132723 0.00430631 0)
(0.122363 0.0073535 0)
(0.110466 0.0160478 0)
(0.100035 -3.22938e-05 0)
(0.10019 -5.99852e-05 0)
(0.10044 -8.5623e-05 0)
(0.100765 -0.000109287 0)
(0.101157 -0.000131556 0)
(0.10161 -0.000152741 0)
(0.102118 -0.000173043 0)
(0.102677 -0.000192623 0)
(0.103283 -0.000211602 0)
(0.103931 -0.000230075 0)
(0.104619 -0.000248117 0)
(0.105343 -0.00026579 0)
(0.106101 -0.000283142 0)
(0.106891 -0.000300214 0)
(0.10771 -0.000317037 0)
(0.108556 -0.000333637 0)
(0.109428 -0.000350034 0)
(0.110323 -0.000366245 0)
(0.111239 -0.00038228 0)
(0.112176 -0.000398148 0)
(0.113131 -0.000413853 0)
(0.114104 -0.000429397 0)
(0.115092 -0.00044478 0)
(0.116095 -0.000459997 0)
(0.11711 -0.000475044 0)
(0.118137 -0.000489912 0)
(0.119175 -0.000504593 0)
(0.120222 -0.000519073 0)
(0.121278 -0.00053334 0)
(0.12234 -0.000547377 0)
(0.123408 -0.000561167 0)
(0.124481 -0.000574688 0)
(0.125558 -0.00058792 0)
(0.126637 -0.000600836 0)
(0.127718 -0.00061341 0)
(0.128799 -0.000625611 0)
(0.12988 -0.000637406 0)
(0.130958 -0.000648759 0)
(0.132034 -0.000659628 0)
(0.133106 -0.000669968 0)
(0.134173 -0.000679731 0)
(0.135234 -0.000688861 0)
(0.136287 -0.000697296 0)
(0.137332 -0.00070497 0)
(0.138367 -0.000711804 0)
(0.139392 -0.000717713 0)
(0.140404 -0.000722601 0)
(0.141403 -0.000726359 0)
(0.142387 -0.000728861 0)
(0.143354 -0.000729967 0)
(0.144303 -0.000729515 0)
(0.145233 -0.000727317 0)
(0.146142 -0.000723157 0)
(0.147027 -0.000716786 0)
(0.147886 -0.000707908 0)
(0.148718 -0.000696179 0)
(0.149519 -0.000681188 0)
(0.150287 -0.000662447 0)
(0.151018 -0.000639371 0)
(0.151709 -0.000611249 0)
(0.152356 -0.000577213 0)
(0.152953 -0.000536194 0)
(0.153496 -0.000486861 0)
(0.153977 -0.000427538 0)
(0.154389 -0.00035609 0)
(0.154722 -0.000269761 0)
(0.154964 -0.000164946 0)
(0.155103 -3.6856e-05 0)
(0.15512 0.000121001 0)
(0.154993 0.000317699 0)
(0.154694 0.000566108 0)
(0.154186 0.00088489 0)
(0.153421 0.00130184 0)
(0.152333 0.00185947 0)
(0.150834 0.00262454 0)
(0.148804 0.00370444 0)
(0.14608 0.00527456 0)
(0.142439 0.00762403 0)
(0.137609 0.0112332 0)
(0.131603 0.0168111 0)
(0.126715 0.0247406 0)
(0.100032 -5.48875e-05 0)
(0.100185 -0.000102889 0)
(0.100433 -0.000147046 0)
(0.100755 -0.00018779 0)
(0.101145 -0.000226124 0)
(0.101596 -0.000262585 0)
(0.102103 -0.000297521 0)
(0.10266 -0.000331211 0)
(0.103263 -0.000363864 0)
(0.103909 -0.000395645 0)
(0.104595 -0.000426681 0)
(0.105317 -0.00045708 0)
(0.106073 -0.000486925 0)
(0.106861 -0.000516285 0)
(0.107677 -0.000545216 0)
(0.108521 -0.000573762 0)
(0.10939 -0.000601957 0)
(0.110282 -0.000629829 0)
(0.111196 -0.000657398 0)
(0.11213 -0.000684676 0)
(0.113082 -0.000711673 0)
(0.114051 -0.000738391 0)
(0.115036 -0.000764829 0)
(0.116036 -0.00079098 0)
(0.117048 -0.000816837 0)
(0.118072 -0.000842384 0)
(0.119106 -0.000867605 0)
(0.12015 -0.000892481 0)
(0.121201 -0.000916986 0)
(0.12226 -0.000941095 0)
(0.123324 -0.000964775 0)
(0.124393 -0.000987991 0)
(0.125466 -0.00101071 0)
(0.126541 -0.00103288 0)
(0.127617 -0.00105446 0)
(0.128694 -0.00107539 0)
(0.12977 -0.00109563 0)
(0.130844 -0.0011151 0)
(0.131915 -0.00113373 0)
(0.132982 -0.00115146 0)
(0.134044 -0.00116819 0)
(0.1351 -0.00118383 0)
(0.136148 -0.00119827 0)
(0.137188 -0.00121141 0)
(0.138218 -0.00122309 0)
(0.139237 -0.00123319 0)
(0.140243 -0.00124154 0)
(0.141237 -0.00124794 0)
(0.142215 -0.00125218 0)
(0.143177 -0.00125403 0)
(0.144121 -0.00125321 0)
(0.145045 -0.0012494 0)
(0.145948 -0.00124224 0)
(0.146827 -0.00123129 0)
(0.147682 -0.00121606 0)
(0.148508 -0.00119596 0)
(0.149305 -0.00117031 0)
(0.150068 -0.00113829 0)
(0.150796 -0.0010989 0)
(0.151484 -0.00105095 0)
(0.152129 -0.000993008 0)
(0.152726 -0.000923287 0)
(0.153269 -0.000839584 0)
(0.153753 -0.000739141 0)
(0.154171 -0.000618463 0)
(0.154514 -0.000473077 0)
(0.154772 -0.000297179 0)
(0.154933 -8.31421e-05 0)
(0.154982 0.000179199 0)
(0.154902 0.000503742 0)
(0.15467 0.000909796 0)
(0.154261 0.00142457 0)
(0.153642 0.00208714 0)
(0.152774 0.00295451 0)
(0.151613 0.00411101 0)
(0.150115 0.00568212 0)
(0.148247 0.00785274 0)
(0.146014 0.0108858 0)
(0.143528 0.0151257 0)
(0.141217 0.0208709 0)
(0.140348 0.0275983 0)
(0.100029 -7.81611e-05 0)
(0.100179 -0.000148154 0)
(0.100424 -0.000212108 0)
(0.100743 -0.000271153 0)
(0.10113 -0.00032668 0)
(0.101578 -0.000379476 0)
(0.102081 -0.000430056 0)
(0.102635 -0.000478822 0)
(0.103235 -0.000526081 0)
(0.103878 -0.000572071 0)
(0.10456 -0.00061698 0)
(0.105279 -0.00066096 0)
(0.106031 -0.000704134 0)
(0.106815 -0.000746603 0)
(0.107627 -0.000788446 0)
(0.108467 -0.000829728 0)
(0.109332 -0.000870499 0)
(0.11022 -0.000910798 0)
(0.11113 -0.000950654 0)
(0.112059 -0.000990086 0)
(0.113007 -0.00102911 0)
(0.113972 -0.00106772 0)
(0.114952 -0.00110592 0)
(0.115946 -0.0011437 0)
(0.116953 -0.00118106 0)
(0.117972 -0.00121796 0)
(0.119001 -0.00125438 0)
(0.120039 -0.0012903 0)
(0.121085 -0.00132568 0)
(0.122138 -0.00136048 0)
(0.123196 -0.00139465 0)
(0.124259 -0.00142815 0)
(0.125325 -0.00146092 0)
(0.126394 -0.00149289 0)
(0.127464 -0.001524 0)
(0.128534 -0.00155418 0)
(0.129603 -0.00158333 0)
(0.13067 -0.00161138 0)
(0.131733 -0.00163821 0)
(0.132793 -0.00166373 0)
(0.133848 -0.00168779 0)
(0.134896 -0.00171028 0)
(0.135936 -0.00173103 0)
(0.136968 -0.00174988 0)
(0.13799 -0.00176665 0)
(0.139001 -0.00178111 0)
(0.14 -0.00179304 0)
(0.140985 -0.00180217 0)
(0.141955 -0.00180819 0)
(0.142908 -0.00181075 0)
(0.143844 -0.00180948 0)
(0.14476 -0.0018039 0)
(0.145655 -0.00179351 0)
(0.146527 -0.0017777 0)
(0.147373 -0.00175576 0)
(0.148193 -0.00172687 0)
(0.148983 -0.00169007 0)
(0.14974 -0.00164419 0)
(0.150463 -0.00158787 0)
(0.151147 -0.00151945 0)
(0.151789 -0.00143694 0)
(0.152386 -0.00133788 0)
(0.152931 -0.00121929 0)
(0.153421 -0.00107741 0)
(0.153848 -0.000907578 0)
(0.154206 -0.00070385 0)
(0.154487 -0.000458633 0)
(0.154682 -0.000162109 0)
(0.154778 0.00019851 0)
(0.154765 0.000640191 0)
(0.154628 0.00118582 0)
(0.154353 0.00186641 0)
(0.153925 0.00272436 0)
(0.153333 0.00381783 0)
(0.152571 0.0052264 0)
(0.151653 0.00705716 0)
(0.150627 0.00944803 0)
(0.149606 0.0125588 0)
(0.148811 0.0165263 0)
(0.148627 0.0213121 0)
(0.14961 0.026265 0)
(0.100026 -0.00010212 0)
(0.100173 -0.000195694 0)
(0.100413 -0.000280766 0)
(0.100728 -0.000359394 0)
(0.101111 -0.00043331 0)
(0.101554 -0.000503566 0)
(0.102053 -0.000570855 0)
(0.102603 -0.000635718 0)
(0.103198 -0.000698565 0)
(0.103837 -0.000759712 0)
(0.104514 -0.000819412 0)
(0.105228 -0.000877869 0)
(0.105975 -0.000935246 0)
(0.106754 -0.000991677 0)
(0.107561 -0.00104727 0)
(0.108396 -0.00110211 0)
(0.109255 -0.00115626 0)
(0.110137 -0.00120978 0)
(0.111041 -0.00126269 0)
(0.111964 -0.00131504 0)
(0.112906 -0.00136684 0)
(0.113864 -0.00141808 0)
(0.114838 -0.00146877 0)
(0.115826 -0.0015189 0)
(0.116826 -0.00156844 0)
(0.117837 -0.00161738 0)
(0.118859 -0.00166567 0)
(0.11989 -0.00171329 0)
(0.120928 -0.00176017 0)
(0.121973 -0.00180628 0)
(0.123023 -0.00185154 0)
(0.124077 -0.0018959 0)
(0.125135 -0.00193928 0)
(0.126195 -0.00198159 0)
(0.127256 -0.00202275 0)
(0.128317 -0.00206266 0)
(0.129377 -0.0021012 0)
(0.130434 -0.00213825 0)
(0.131488 -0.00217369 0)
(0.132538 -0.00220736 0)
(0.133583 -0.00223911 0)
(0.134621 -0.00226874 0)
(0.135651 -0.00229607 0)
(0.136672 -0.00232088 0)
(0.137684 -0.0023429 0)
(0.138684 -0.00236188 0)
(0.139672 -0.00237749 0)
(0.140646 -0.00238939 0)
(0.141605 -0.00239718 0)
(0.142548 -0.00240042 0)
(0.143473 -0.00239858 0)
(0.144379 -0.00239109 0)
(0.145263 -0.00237727 0)
(0.146125 -0.00235634 0)
(0.146962 -0.0023274 0)
(0.147773 -0.00228939 0)
(0.148554 -0.00224107 0)
(0.149305 -0.00218099 0)
(0.150021 -0.0021074 0)
(0.150701 -0.00201825 0)
(0.151341 -0.00191103 0)
(0.151938 -0.00178273 0)
(0.152488 -0.00162968 0)
(0.152985 -0.00144735 0)
(0.153427 -0.00123016 0)
(0.153807 -0.00097113 0)
(0.154119 -0.000661478 0)
(0.154358 -0.000290104 0)
(0.154517 0.000157069 0)
(0.154589 0.000697943 0)
(0.154569 0.00135581 0)
(0.154453 0.00216075 0)
(0.154243 0.0031515 0)
(0.153945 0.00437739 0)
(0.153583 0.00589989 0)
(0.153201 0.00779217 0)
(0.152876 0.0101333 0)
(0.152737 0.0129896 0)
(0.152979 0.0163691 0)
(0.153848 0.0201241 0)
(0.155568 0.0237811 0)
(0.100023 -0.000126773 0)
(0.100167 -0.000245425 0)
(0.100402 -0.000352967 0)
(0.100712 -0.000452501 0)
(0.101089 -0.000546061 0)
(0.101527 -0.000634957 0)
(0.10202 -0.000720079 0)
(0.102564 -0.000802111 0)
(0.103154 -0.000881575 0)
(0.103786 -0.000958873 0)
(0.104457 -0.00103433 0)
(0.105165 -0.00110819 0)
(0.105906 -0.00118069 0)
(0.106678 -0.00125197 0)
(0.107479 -0.00132217 0)
(0.108306 -0.00139142 0)
(0.109159 -0.00145978 0)
(0.110034 -0.00152733 0)
(0.11093 -0.00159411 0)
(0.111845 -0.00166016 0)
(0.112779 -0.00172549 0)
(0.113729 -0.00179012 0)
(0.114694 -0.00185404 0)
(0.115673 -0.00191723 0)
(0.116665 -0.00197967 0)
(0.117667 -0.00204133 0)
(0.11868 -0.00210216 0)
(0.119701 -0.00216212 0)
(0.120729 -0.00222115 0)
(0.121764 -0.00227917 0)
(0.122804 -0.00233612 0)
(0.123848 -0.00239191 0)
(0.124895 -0.00244645 0)
(0.125944 -0.00249962 0)
(0.126994 -0.00255132 0)
(0.128043 -0.00260143 0)
(0.129091 -0.0026498 0)
(0.130137 -0.00269627 0)
(0.131179 -0.00274069 0)
(0.132217 -0.00278287 0)
(0.133249 -0.0028226 0)
(0.134274 -0.00285967 0)
(0.135291 -0.00289381 0)
(0.1363 -0.00292476 0)
(0.137298 -0.00295221 0)
(0.138286 -0.00297581 0)
(0.13926 -0.00299518 0)
(0.140221 -0.00300989 0)
(0.141167 -0.00301944 0)
(0.142097 -0.00302329 0)
(0.143009 -0.00302081 0)
(0.143902 -0.00301127 0)
(0.144774 -0.00299387 0)
(0.145624 -0.00296765 0)
(0.14645 -0.00293152 0)
(0.14725 -0.00288422 0)
(0.148023 -0.00282427 0)
(0.148765 -0.00274993 0)
(0.149475 -0.00265917 0)
(0.150151 -0.00254955 0)
(0.15079 -0.0024182 0)
(0.151389 -0.00226168 0)
(0.151945 -0.00207581 0)
(0.152455 -0.00185557 0)
(0.152915 -0.00159483 0)
(0.153323 -0.00128609 0)
(0.153675 -0.000920147 0)
(0.153968 -0.000485657 0)
(0.154201 3.13483e-05 0)
(0.154371 0.000647716 0)
(0.15448 0.00138434 0)
(0.154534 0.00226679 0)
(0.154544 0.00332571 0)
(0.15453 0.0045968 0)
(0.154526 0.00611965 0)
(0.154585 0.00793423 0)
(0.154782 0.0100728 0)
(0.155225 0.0125439 0)
(0.156044 0.0153034 0)
(0.157376 0.0182087 0)
(0.159297 0.0209672 0)
(0.10002 -0.000152132 0)
(0.100161 -0.000297283 0)
(0.10039 -0.000428657 0)
(0.100694 -0.000550442 0)
(0.101064 -0.000664942 0)
(0.101496 -0.00077371 0)
(0.101982 -0.000877838 0)
(0.102519 -0.000978161 0)
(0.103102 -0.00107532 0)
(0.103727 -0.0011698 0)
(0.104391 -0.00126202 0)
(0.105091 -0.00135227 0)
(0.105824 -0.00144081 0)
(0.106588 -0.00152787 0)
(0.107381 -0.00161359 0)
(0.1082 -0.00169811 0)
(0.109043 -0.00178154 0)
(0.109909 -0.00186396 0)
(0.110796 -0.00194542 0)
(0.111702 -0.00202597 0)
(0.112626 -0.00210562 0)
(0.113566 -0.0021844 0)
(0.114521 -0.00226228 0)
(0.11549 -0.00233926 0)
(0.11647 -0.00241531 0)
(0.117462 -0.00249038 0)
(0.118463 -0.00256442 0)
(0.119472 -0.00263738 0)
(0.120489 -0.00270917 0)
(0.121511 -0.00277972 0)
(0.122539 -0.00284894 0)
(0.12357 -0.00291671 0)
(0.124604 -0.00298294 0)
(0.12564 -0.00304748 0)
(0.126676 -0.0031102 0)
(0.127712 -0.00317095 0)
(0.128746 -0.00322956 0)
(0.129778 -0.00328584 0)
(0.130805 -0.0033396 0)
(0.131828 -0.0033906 0)
(0.132846 -0.0034386 0)
(0.133856 -0.00348334 0)
(0.134858 -0.00352451 0)
(0.135851 -0.00356178 0)
(0.136834 -0.00359478 0)
(0.137806 -0.00362311 0)
(0.138765 -0.0036463 0)
(0.139711 -0.00366384 0)
(0.140641 -0.00367515 0)
(0.141556 -0.00367958 0)
(0.142453 -0.0036764 0)
(0.143331 -0.00366476 0)
(0.14419 -0.00364371 0)
(0.145026 -0.00361216 0)
(0.14584 -0.00356885 0)
(0.146629 -0.00351234 0)
(0.147391 -0.00344094 0)
(0.148125 -0.0033527 0)
(0.148829 -0.00324535 0)
(0.149502 -0.00311622 0)
(0.15014 -0.00296217 0)
(0.150743 -0.00277949 0)
(0.151308 -0.00256378 0)
(0.151834 -0.00230981 0)
(0.152318 -0.00201135 0)
(0.152759 -0.00166097 0)
(0.153157 -0.00124978 0)
(0.153511 -0.000767197 0)
(0.153824 -0.000200684 0)
(0.154097 0.00046433 0)
(0.154339 0.00124433 0)
(0.154559 0.00215845 0)
(0.154774 0.00322771 0)
(0.155009 0.00447389 0)
(0.155298 0.00591736 0)
(0.15569 0.00757314 0)
(0.156246 0.00944438 0)
(0.157037 0.0115123 0)
(0.158144 0.0137218 0)
(0.159631 0.0159654 0)
(0.161515 0.0180729 0)
(0.100017 -0.00017822 0)
(0.100154 -0.00035122 0)
(0.100378 -0.000507791 0)
(0.100675 -0.000653175 0)
(0.101038 -0.00078994 0)
(0.101462 -0.000919851 0)
(0.101941 -0.0010442 0)
(0.102469 -0.00116398 0)
(0.103044 -0.00127995 0)
(0.10366 -0.0013927 0)
(0.104315 -0.00150271 0)
(0.105006 -0.00161035 0)
(0.10573 -0.00171593 0)
(0.106484 -0.0018197 0)
(0.107267 -0.00192185 0)
(0.108076 -0.00202256 0)
(0.108909 -0.00212193 0)
(0.109764 -0.00222007 0)
(0.11064 -0.00231705 0)
(0.111535 -0.00241291 0)
(0.112447 -0.00250768 0)
(0.113376 -0.00260137 0)
(0.114319 -0.00269398 0)
(0.115274 -0.00278548 0)
(0.116242 -0.00287584 0)
(0.117221 -0.00296501 0)
(0.118208 -0.00305292 0)
(0.119204 -0.00313951 0)
(0.120207 -0.00322469 0)
(0.121215 -0.00330836 0)
(0.122228 -0.0033904 0)
(0.123245 -0.00347071 0)
(0.124264 -0.00354913 0)
(0.125284 -0.00362552 0)
(0.126304 -0.00369972 0)
(0.127324 -0.00377153 0)
(0.128342 -0.00384077 0)
(0.129357 -0.00390722 0)
(0.130368 -0.00397063 0)
(0.131374 -0.00403074 0)
(0.132374 -0.00408727 0)
(0.133367 -0.0041399 0)
(0.134351 -0.00418828 0)
(0.135327 -0.00423202 0)
(0.136292 -0.0042707 0)
(0.137246 -0.00430384 0)
(0.138188 -0.00433091 0)
(0.139116 -0.00435132 0)
(0.140029 -0.00436442 0)
(0.140927 -0.00436945 0)
(0.141808 -0.00436559 0)
(0.14267 -0.00435188 0)
(0.143513 -0.00432727 0)
(0.144335 -0.00429053 0)
(0.145135 -0.00424028 0)
(0.145912 -0.00417493 0)
(0.146664 -0.00409266 0)
(0.14739 -0.00399138 0)
(0.148088 -0.00386866 0)
(0.148758 -0.00372172 0)
(0.149398 -0.00354731 0)
(0.150007 -0.00334168 0)
(0.150583 -0.00310044 0)
(0.151127 -0.00281851 0)
(0.151638 -0.00248998 0)
(0.152117 -0.00210801 0)
(0.152564 -0.00166471 0)
(0.152982 -0.00115104 0)
(0.153376 -0.000556757 0)
(0.153751 0.000129616 0)
(0.154118 0.000919609 0)
(0.154488 0.0018255 0)
(0.154879 0.00285936 0)
(0.155317 0.00403148 0)
(0.155829 0.00534837 0)
(0.156454 0.00680964 0)
(0.157234 0.00840406 0)
(0.158215 0.0101044 0)
(0.159437 0.0118621 0)
(0.160929 0.0136036 0)
(0.162685 0.0152325 0)
(0.100014 -0.000205075 0)
(0.100148 -0.000407209 0)
(0.100366 -0.000590334 0)
(0.100655 -0.000760661 0)
(0.10101 -0.000921026 0)
(0.101426 -0.00107338 0)
(0.101895 -0.00121919 0)
(0.102415 -0.00135962 0)
(0.10298 -0.00149555 0)
(0.103586 -0.00162768 0)
(0.104231 -0.00175656 0)
(0.104911 -0.00188262 0)
(0.105624 -0.00200624 0)
(0.106368 -0.00212771 0)
(0.107139 -0.00224724 0)
(0.107936 -0.00236504 0)
(0.108757 -0.00248125 0)
(0.1096 -0.00259599 0)
(0.110463 -0.00270932 0)
(0.111345 -0.00282131 0)
(0.112244 -0.002932 0)
(0.113158 -0.00304138 0)
(0.114087 -0.00314946 0)
(0.115028 -0.00325621 0)
(0.115982 -0.00336159 0)
(0.116945 -0.00346554 0)
(0.117917 -0.00356798 0)
(0.118897 -0.00366883 0)
(0.119884 -0.003768 0)
(0.120876 -0.00386536 0)
(0.121872 -0.00396078 0)
(0.122871 -0.00405413 0)
(0.123873 -0.00414524 0)
(0.124875 -0.00423393 0)
(0.125878 -0.00432002 0)
(0.126879 -0.0044033 0)
(0.127879 -0.00448353 0)
(0.128875 -0.00456046 0)
(0.129867 -0.00463383 0)
(0.130854 -0.00470331 0)
(0.131834 -0.0047686 0)
(0.132808 -0.00482932 0)
(0.133773 -0.00488507 0)
(0.134729 -0.00493542 0)
(0.135674 -0.00497989 0)
(0.136609 -0.00501793 0)
(0.137531 -0.00504897 0)
(0.13844 -0.00507233 0)
(0.139334 -0.00508728 0)
(0.140213 -0.00509301 0)
(0.141075 -0.00508859 0)
(0.14192 -0.005073 0)
(0.142747 -0.00504509 0)
(0.143553 -0.00500354 0)
(0.144339 -0.00494688 0)
(0.145104 -0.00487345 0)
(0.145845 -0.00478134 0)
(0.146563 -0.00466841 0)
(0.147257 -0.00453221 0)
(0.147925 -0.00436996 0)
(0.148567 -0.00417848 0)
(0.149184 -0.00395416 0)
(0.149774 -0.00369292 0)
(0.150338 -0.00339011 0)
(0.150878 -0.00304053 0)
(0.151395 -0.00263833 0)
(0.151892 -0.00217708 0)
(0.152373 -0.00164975 0)
(0.152843 -0.00104885 0)
(0.153312 -0.000366539 0)
(0.153788 0.000405126 0)
(0.154285 0.00127166 0)
(0.154818 0.00223812 0)
(0.155408 0.00330683 0)
(0.156078 0.00447582 0)
(0.156853 0.00573705 0)
(0.157761 0.0070744 0)
(0.158826 0.00846175 0)
(0.160069 0.00986174 0)
(0.161498 0.0112263 0)
(0.163102 0.012501 0)
(0.10001 -0.000232735 0)
(0.100142 -0.000465232 0)
(0.100353 -0.000676256 0)
(0.100635 -0.000872858 0)
(0.100981 -0.00105816 0)
(0.101387 -0.00123425 0)
(0.101847 -0.0014028 0)
(0.102356 -0.0015651 0)
(0.10291 -0.00172218 0)
(0.103506 -0.00187482 0)
(0.104139 -0.00202366 0)
(0.104807 -0.00216921 0)
(0.105508 -0.00231189 0)
(0.106239 -0.00245204 0)
(0.106997 -0.00258992 0)
(0.10778 -0.00272575 0)
(0.108587 -0.0028597 0)
(0.109416 -0.0029919 0)
(0.110265 -0.00312245 0)
(0.111132 -0.0032514 0)
(0.112015 -0.00337879 0)
(0.112914 -0.00350465 0)
(0.113827 -0.00362895 0)
(0.114752 -0.00375167 0)
(0.115689 -0.00387275 0)
(0.116635 -0.00399214 0)
(0.117589 -0.00410975 0)
(0.118552 -0.00422548 0)
(0.11952 -0.00433921 0)
(0.120493 -0.00445082 0)
(0.121471 -0.00456014 0)
(0.122451 -0.00466702 0)
(0.123433 -0.00477128 0)
(0.124416 -0.0048727 0)
(0.125398 -0.00497109 0)
(0.126379 -0.00506619 0)
(0.127358 -0.00515774 0)
(0.128333 -0.00524546 0)
(0.129304 -0.00532904 0)
(0.130269 -0.00540814 0)
(0.131229 -0.00548238 0)
(0.13218 -0.00555137 0)
(0.133124 -0.00561466 0)
(0.134058 -0.00567176 0)
(0.134982 -0.00572213 0)
(0.135895 -0.0057652 0)
(0.136796 -0.00580031 0)
(0.137684 -0.00582675 0)
(0.138558 -0.00584372 0)
(0.139417 -0.00585034 0)
(0.14026 -0.00584564 0)
(0.141086 -0.00582853 0)
(0.141895 -0.0057978 0)
(0.142686 -0.0057521 0)
(0.143457 -0.00568992 0)
(0.144209 -0.00560957 0)
(0.14494 -0.00550915 0)
(0.14565 -0.00538656 0)
(0.146339 -0.00523942 0)
(0.147006 -0.00506511 0)
(0.147652 -0.00486068 0)
(0.148277 -0.00462287 0)
(0.148881 -0.00434808 0)
(0.149467 -0.00403237 0)
(0.150035 -0.00367147 0)
(0.150589 -0.00326082 0)
(0.151133 -0.00279562 0)
(0.151671 -0.00227102 0)
(0.15221 -0.00168221 0)
(0.152757 -0.00102472 0)
(0.153323 -0.000294602 0)
(0.15392 0.000511163 0)
(0.154559 0.00139118 0)
(0.155256 0.00234305 0)
(0.156027 0.00336072 0)
(0.156888 0.00443355 0)
(0.157855 0.00554566 0)
(0.158942 0.00667555 0)
(0.160155 0.00779635 0)
(0.161495 0.00887742 0)
(0.16295 0.00988766 0)
(0.100007 -0.000261239 0)
(0.100136 -0.000525278 0)
(0.100341 -0.000765527 0)
(0.100614 -0.00098972 0)
(0.100952 -0.00120128 0)
(0.101348 -0.00140243 0)
(0.101797 -0.00159498 0)
(0.102294 -0.00178039 0)
(0.102836 -0.00195979 0)
(0.103419 -0.00213409 0)
(0.10404 -0.00230401 0)
(0.104695 -0.00247012 0)
(0.105382 -0.00263291 0)
(0.106098 -0.00279274 0)
(0.106841 -0.00294994 0)
(0.10761 -0.00310474 0)
(0.108401 -0.00325734 0)
(0.109214 -0.00340789 0)
(0.110047 -0.0035565 0)
(0.110897 -0.00370323 0)
(0.111764 -0.00384813 0)
(0.112645 -0.00399122 0)
(0.11354 -0.00413247 0)
(0.114447 -0.00427187 0)
(0.115364 -0.00440935 0)
(0.116291 -0.00454483 0)
(0.117226 -0.00467822 0)
(0.118169 -0.00480942 0)
(0.119117 -0.00493827 0)
(0.12007 -0.00506464 0)
(0.121026 -0.00518836 0)
(0.121985 -0.00530923 0)
(0.122945 -0.00542706 0)
(0.123906 -0.00554162 0)
(0.124866 -0.00565266 0)
(0.125825 -0.00575991 0)
(0.12678 -0.00586309 0)
(0.127733 -0.00596187 0)
(0.12868 -0.0060559 0)
(0.129622 -0.00614482 0)
(0.130558 -0.00622822 0)
(0.131486 -0.00630565 0)
(0.132406 -0.00637662 0)
(0.133317 -0.00644062 0)
(0.134218 -0.00649705 0)
(0.135108 -0.0065453 0)
(0.135986 -0.00658466 0)
(0.136851 -0.00661438 0)
(0.137703 -0.00663363 0)
(0.138541 -0.00664149 0)
(0.139363 -0.00663695 0)
(0.140171 -0.0066189 0)
(0.140961 -0.00658611 0)
(0.141735 -0.00653723 0)
(0.142492 -0.00647077 0)
(0.143231 -0.00638509 0)
(0.143951 -0.00627838 0)
(0.144654 -0.00614866 0)
(0.145338 -0.00599376 0)
(0.146005 -0.00581129 0)
(0.146654 -0.00559871 0)
(0.147288 -0.00535322 0)
(0.147906 -0.00507189 0)
(0.148511 -0.00475162 0)
(0.149106 -0.0043892 0)
(0.149694 -0.0039814 0)
(0.150279 -0.00352509 0)
(0.150866 -0.00301738 0)
(0.151461 -0.00245582 0)
(0.152071 -0.00183865 0)
(0.152704 -0.00116502 0)
(0.153371 -0.000435138 0)
(0.154082 0.000349675 0)
(0.154846 0.00118302 0)
(0.155674 0.00205692 0)
(0.156575 0.00296105 0)
(0.157558 0.00388204 0)
(0.158627 0.00480355 0)
(0.159785 0.00570699 0)
(0.161029 0.00657294 0)
(0.162348 0.00738336 0)
(0.100003 -0.000290618 0)
(0.100129 -0.000587336 0)
(0.100328 -0.000858108 0)
(0.100593 -0.00111119 0)
(0.100921 -0.00135031 0)
(0.101306 -0.00157781 0)
(0.101744 -0.00179563 0)
(0.102229 -0.00200538 0)
(0.102758 -0.00220831 0)
(0.103328 -0.00240543 0)
(0.103934 -0.00259754 0)
(0.104574 -0.00278529 0)
(0.105246 -0.00296922 0)
(0.105946 -0.00314975 0)
(0.106673 -0.00332723 0)
(0.107425 -0.00350195 0)
(0.1082 -0.00367411 0)
(0.108995 -0.00384388 0)
(0.109809 -0.00401139 0)
(0.110641 -0.00417671 0)
(0.111489 -0.0043399 0)
(0.11235 -0.00450097 0)
(0.113225 -0.0046599 0)
(0.114112 -0.00481666 0)
(0.115009 -0.00497118 0)
(0.115915 -0.00512338 0)
(0.116828 -0.00527315 0)
(0.117749 -0.00542036 0)
(0.118674 -0.00556487 0)
(0.119605 -0.0057065 0)
(0.120538 -0.00584507 0)
(0.121473 -0.00598037 0)
(0.12241 -0.00611217 0)
(0.123347 -0.00624022 0)
(0.124283 -0.00636424 0)
(0.125216 -0.00648395 0)
(0.126147 -0.00659902 0)
(0.127075 -0.00670909 0)
(0.127997 -0.00681381 0)
(0.128914 -0.00691275 0)
(0.129824 -0.00700548 0)
(0.130727 -0.00709152 0)
(0.131622 -0.00717035 0)
(0.132508 -0.00724141 0)
(0.133383 -0.00730409 0)
(0.134248 -0.00735772 0)
(0.135102 -0.00740159 0)
(0.135944 -0.00743492 0)
(0.136773 -0.00745685 0)
(0.137588 -0.00746644 0)
(0.13839 -0.0074627 0)
(0.139176 -0.00744452 0)
(0.139949 -0.0074107 0)
(0.140705 -0.00735994 0)
(0.141447 -0.00729082 0)
(0.142172 -0.00720182 0)
(0.142882 -0.00709129 0)
(0.143577 -0.00695746 0)
(0.144257 -0.00679843 0)
(0.144922 -0.0066122 0)
(0.145575 -0.00639665 0)
(0.146215 -0.00614961 0)
(0.146846 -0.00586885 0)
(0.147468 -0.00555216 0)
(0.148086 -0.00519739 0)
(0.148702 -0.00480257 0)
(0.14932 -0.00436601 0)
(0.149945 -0.00388647 0)
(0.150582 -0.0033633 0)
(0.151237 -0.00279664 0)
(0.151917 -0.00218762 0)
(0.152629 -0.00153853 0)
(0.15338 -0.000852797 0)
(0.154178 -0.00013455 0)
(0.155029 0.00060905 0)
(0.155937 0.00136722 0)
(0.156905 0.00212908 0)
(0.157936 0.00288288 0)
(0.159028 0.00361608 0)
(0.160177 0.00431656 0)
(0.161375 0.00497379 0)
(0.099999 -0.00032089 0)
(0.100123 -0.000651384 0)
(0.100316 -0.000953945 0)
(0.100572 -0.00123719 0)
(0.10089 -0.00150515 0)
(0.101264 -0.00176027 0)
(0.101689 -0.00200462 0)
(0.102161 -0.00223992 0)
(0.102676 -0.00246757 0)
(0.103231 -0.00268865 0)
(0.103821 -0.00290406 0)
(0.104446 -0.00311453 0)
(0.105101 -0.00332063 0)
(0.105784 -0.00352286 0)
(0.106493 -0.00372159 0)
(0.107227 -0.00391714 0)
(0.107982 -0.00410976 0)
(0.108758 -0.00429961 0)
(0.109553 -0.00448685 0)
(0.110364 -0.00467156 0)
(0.111191 -0.00485379 0)
(0.112032 -0.00503357 0)
(0.112885 -0.00521086 0)
(0.113749 -0.00538565 0)
(0.114623 -0.00555784 0)
(0.115506 -0.00572735 0)
(0.116396 -0.00589405 0)
(0.117292 -0.00605781 0)
(0.118194 -0.00621846 0)
(0.119099 -0.00637581 0)
(0.120007 -0.00652965 0)
(0.120917 -0.00667976 0)
(0.121828 -0.00682588 0)
(0.122739 -0.00696775 0)
(0.123648 -0.00710505 0)
(0.124556 -0.00723748 0)
(0.12546 -0.00736468 0)
(0.12636 -0.00748628 0)
(0.127255 -0.00760187 0)
(0.128145 -0.00771102 0)
(0.129028 -0.00781327 0)
(0.129904 -0.0079081 0)
(0.130772 -0.00799497 0)
(0.131631 -0.00807331 0)
(0.13248 -0.00814247 0)
(0.133319 -0.00820178 0)
(0.134147 -0.00825052 0)
(0.134964 -0.00828788 0)
(0.135769 -0.00831303 0)
(0.136561 -0.00832506 0)
(0.13734 -0.00832297 0)
(0.138106 -0.00830572 0)
(0.138859 -0.00827218 0)
(0.139598 -0.00822114 0)
(0.140324 -0.00815133 0)
(0.141036 -0.00806138 0)
(0.141734 -0.00794986 0)
(0.142421 -0.00781528 0)
(0.143095 -0.00765608 0)
(0.143759 -0.00747069 0)
(0.144412 -0.0072575 0)
(0.145058 -0.00701495 0)
(0.145697 -0.00674153 0)
(0.146333 -0.00643586 0)
(0.146968 -0.00609676 0)
(0.147604 -0.00572331 0)
(0.148246 -0.005315 0)
(0.148898 -0.00487177 0)
(0.149563 -0.00439422 0)
(0.150247 -0.00388365 0)
(0.150954 -0.00334223 0)
(0.151689 -0.00277308 0)
(0.152457 -0.00218033 0)
(0.153262 -0.00156906 0)
(0.154107 -0.000945083 0)
(0.154998 -0.000314068 0)
(0.155933 0.000315996 0)
(0.156913 0.000936089 0)
(0.157934 0.00153603 0)
(0.158994 0.00210819 0)
(0.160085 0.00264642 0)
(0.0999947 -0.00035206 0)
(0.100117 -0.000717389 0)
(0.100304 -0.00105296 0)
(0.100551 -0.00136759 0)
(0.100858 -0.00166564 0)
(0.10122 -0.00194963 0)
(0.101632 -0.00222173 0)
(0.10209 -0.00248379 0)
(0.10259 -0.00273731 0)
(0.103129 -0.00298348 0)
(0.103703 -0.00322329 0)
(0.10431 -0.00345751 0)
(0.104947 -0.00368681 0)
(0.105611 -0.00391171 0)
(0.106301 -0.00413264 0)
(0.107015 -0.00434994 0)
(0.10775 -0.00456387 0)
(0.108505 -0.00477464 0)
(0.109278 -0.00498241 0)
(0.110067 -0.00518726 0)
(0.110871 -0.00538927 0)
(0.111688 -0.00558844 0)
(0.112518 -0.00578476 0)
(0.113358 -0.00597819 0)
(0.114207 -0.00616864 0)
(0.115065 -0.006356 0)
(0.11593 -0.00654016 0)
(0.1168 -0.00672094 0)
(0.117675 -0.00689817 0)
(0.118553 -0.00707165 0)
(0.119435 -0.00724114 0)
(0.120317 -0.00740641 0)
(0.1212 -0.00756717 0)
(0.122083 -0.00772313 0)
(0.122964 -0.00787398 0)
(0.123842 -0.00801936 0)
(0.124718 -0.00815891 0)
(0.125589 -0.00829223 0)
(0.126456 -0.00841889 0)
(0.127317 -0.00853844 0)
(0.128171 -0.00865038 0)
(0.129018 -0.00875421 0)
(0.129858 -0.00884935 0)
(0.130688 -0.00893522 0)
(0.13151 -0.00901118 0)
(0.132321 -0.00907655 0)
(0.133123 -0.00913061 0)
(0.133913 -0.00917259 0)
(0.134693 -0.00920167 0)
(0.135461 -0.00921699 0)
(0.136217 -0.00921762 0)
(0.136962 -0.0092026 0)
(0.137694 -0.0091709 0)
(0.138415 -0.00912147 0)
(0.139124 -0.00905319 0)
(0.139821 -0.00896491 0)
(0.140508 -0.00885548 0)
(0.141185 -0.0087237 0)
(0.141852 -0.0085684 0)
(0.142511 -0.00838843 0)
(0.143164 -0.00818272 0)
(0.143812 -0.00795028 0)
(0.144456 -0.00769024 0)
(0.1451 -0.00740197 0)
(0.145745 -0.00708505 0)
(0.146394 -0.0067394 0)
(0.14705 -0.00636532 0)
(0.147716 -0.00596358 0)
(0.148397 -0.00553546 0)
(0.149094 -0.00508288 0)
(0.149811 -0.00460838 0)
(0.150552 -0.00411519 0)
(0.151318 -0.0036072 0)
(0.152113 -0.00308897 0)
(0.152938 -0.00256561 0)
(0.153794 -0.00204261 0)
(0.154681 -0.00152558 0)
(0.155599 -0.00101988 0)
(0.156547 -0.000529549 0)
(0.15752 -6.01222e-05 0)
(0.158514 0.000384308 0)
(0.09999 -0.000384118 0)
(0.10011 -0.000785293 0)
(0.100291 -0.00115503 0)
(0.100529 -0.00150225 0)
(0.100825 -0.00183157 0)
(0.101175 -0.00214563 0)
(0.101573 -0.00244666 0)
(0.102016 -0.00273663 0)
(0.1025 -0.00301715 0)
(0.103022 -0.00328952 0)
(0.103578 -0.00355477 0)
(0.104166 -0.00381378 0)
(0.104784 -0.00406726 0)
(0.105428 -0.00431578 0)
(0.106098 -0.0045598 0)
(0.10679 -0.00479971 0)
(0.107503 -0.0050358 0)
(0.108235 -0.00526828 0)
(0.108984 -0.00549733 0)
(0.109749 -0.00572305 0)
(0.110529 -0.00594551 0)
(0.111321 -0.00616473 0)
(0.112125 -0.00638069 0)
(0.112939 -0.00659333 0)
(0.113761 -0.00680257 0)
(0.114592 -0.00700829 0)
(0.115429 -0.00721035 0)
(0.116271 -0.00740859 0)
(0.117118 -0.0076028 0)
(0.117967 -0.00779276 0)
(0.118819 -0.00797824 0)
(0.119672 -0.00815896 0)
(0.120526 -0.00833463 0)
(0.121378 -0.00850494 0)