/*--------------------------------*- C++ -*----------------------------------*\
| =========                 |                                                 |
| \\      /  F ield         | OpenFOAM: The Open Source CFD Toolbox           |
|  \\    /   O peration     | Version:  2106                                  |
|   \\  /    A nd           | Website:  www.openfoam.com                      |
|    \\/     M anipulation  |                                                 |
\*---------------------------------------------------------------------------*/
FoamFile
{
    version     2.0;
    format      ascii;
    arch        "LSB;label=32;scalar=64";
    class       surfaceScalarField;
    location    "0.59";
    object      phi;
}
// * * * * * * * * * * * * * * * * * * * * * * * * * * * * * * * * * * * * * //

dimensions      [1 0 -1 0 0 0 0];

oriented        oriented;

internalField   nonuniform List<scalar> 
23692
(
9.30734e-05
6.13971e-09
9.3044e-05
2.94374e-08
9.29767e-05
6.73751e-08
9.28681e-05
1.08636e-07
9.27275e-05
1.4072e-07
9.25706e-05
1.56973e-07
9.24124e-05
1.58363e-07
9.2262e-05
1.50515e-07
9.21227e-05
1.39601e-07
9.19931e-05
1.2985e-07
9.18703e-05
1.2303e-07
9.17516e-05
1.19163e-07
9.16345e-05
1.17469e-07
9.1518e-05
1.17039e-07
9.14014e-05
1.17167e-07
9.12847e-05
1.17413e-07
9.11679e-05
1.17556e-07
9.10513e-05
1.17511e-07
9.0935e-05
1.17262e-07
9.08193e-05
1.16826e-07
9.07044e-05
1.16223e-07
9.05903e-05
1.15468e-07
9.04773e-05
1.14568e-07
9.03655e-05
1.13523e-07
9.02551e-05
1.12333e-07
9.01462e-05
1.1099e-07
9.0039e-05
1.09482e-07
8.99337e-05
1.0781e-07
8.98304e-05
1.05962e-07
8.97294e-05
1.03941e-07
8.96307e-05
1.0175e-07
8.95347e-05
9.93979e-08
8.94413e-05
9.68997e-08
8.93508e-05
9.42734e-08
8.92633e-05
9.15446e-08
8.91787e-05
8.87472e-08
8.90973e-05
8.59134e-08
8.90189e-05
8.30831e-08
8.89435e-05
8.03004e-08
8.8871e-05
7.7613e-08
8.88013e-05
7.50699e-08
8.87341e-05
7.27223e-08
8.86692e-05
7.06248e-08
8.86064e-05
6.88354e-08
8.85451e-05
6.74118e-08
8.84851e-05
6.64145e-08
8.84257e-05
6.59077e-08
8.83665e-05
6.59588e-08
8.83068e-05
6.6641e-08
8.82458e-05
6.80314e-08
8.81828e-05
7.02156e-08
8.81169e-05
7.32909e-08
8.80471e-05
7.73631e-08
8.79721e-05
8.25577e-08
8.78909e-05
8.90176e-08
8.78018e-05
9.69117e-08
8.77033e-05
1.0644e-07
8.75936e-05
1.17844e-07
8.74703e-05
1.31412e-07
8.7331e-05
1.47499e-07
8.71727e-05
1.66542e-07
8.6992e-05
1.8908e-07
8.67846e-05
2.15791e-07
8.65455e-05
2.47532e-07
8.62685e-05
2.85402e-07
8.59462e-05
3.30822e-07
8.5569e-05
3.8566e-07
8.51251e-05
4.52401e-07
8.45992e-05
5.34408e-07
8.39714e-05
6.36316e-07
8.32153e-05
7.64615e-07
8.22952e-05
9.28579e-07
8.11619e-05
1.14172e-06
7.97462e-05
1.42409e-06
7.79485e-05
1.80607e-06
7.56225e-05
2.3344e-06
7.25491e-05
3.08165e-06
6.83953e-05
4.16206e-06
6.2635e-05
5.76848e-06
5.43805e-05
8.26269e-06
1.26061e-05
4.17825e-05
9.95934e-05
1.21362e-08
9.95627e-05
6.01385e-08
9.94917e-05
1.38373e-07
9.93768e-05
2.23679e-07
9.92274e-05
2.90198e-07
9.90604e-05
3.24108e-07
9.88916e-05
3.2731e-07
9.87309e-05
3.1134e-07
9.85818e-05
2.88949e-07
9.84431e-05
2.68864e-07
9.83117e-05
2.54771e-07
9.81845e-05
2.46748e-07
9.80592e-05
2.43197e-07
9.79345e-05
2.42256e-07
9.78099e-05
2.42471e-07
9.76851e-05
2.42944e-07
9.75602e-05
2.43213e-07
9.74356e-05
2.43101e-07
9.73113e-05
2.42579e-07
9.71877e-05
2.41676e-07
9.70649e-05
2.4043e-07
9.6943e-05
2.38873e-07
9.68222e-05
2.37021e-07
9.67027e-05
2.34877e-07
9.65847e-05
2.3243e-07
9.64682e-05
2.29671e-07
9.63536e-05
2.26582e-07
9.62409e-05
2.23149e-07
9.61304e-05
2.19361e-07
9.60222e-05
2.15219e-07
9.59165e-05
2.10728e-07
9.58136e-05
2.0591e-07
9.57135e-05
2.00792e-07
9.56164e-05
1.95415e-07
9.55224e-05
1.89831e-07
9.54315e-05
1.84104e-07
9.53439e-05
1.78308e-07
9.52594e-05
1.72525e-07
9.51782e-05
1.66843e-07
9.50999e-05
1.61358e-07
9.50245e-05
1.56174e-07
9.49518e-05
1.51396e-07
9.48814e-05
1.47137e-07
9.48132e-05
1.43515e-07
9.47465e-05
1.40649e-07
9.46811e-05
1.38665e-07
9.46163e-05
1.37692e-07
9.45516e-05
1.37873e-07
9.44863e-05
1.39354e-07
9.44196e-05
1.42295e-07
9.43506e-05
1.46874e-07
9.42785e-05
1.53283e-07
9.42022e-05
1.61746e-07
9.41204e-05
1.72513e-07
9.40318e-05
1.85878e-07
9.3935e-05
2.02186e-07
9.38281e-05
2.21842e-07
9.37092e-05
2.45334e-07
9.35761e-05
2.73248e-07
9.34261e-05
3.06297e-07
9.32561e-05
3.45357e-07
9.30626e-05
3.91513e-07
9.28413e-05
4.46114e-07
9.25869e-05
5.10866e-07
9.22934e-05
5.87934e-07
9.19532e-05
6.80108e-07
9.1557e-05
7.91021e-07
9.1093e-05
9.25467e-07
9.05466e-05
1.08986e-06
8.98991e-05
1.29291e-06
8.91262e-05
1.5466e-06
8.81962e-05
1.8677e-06
8.7067e-05
2.27994e-06
8.56828e-05
2.81733e-06
8.39689e-05
3.52887e-06
8.18273e-05
4.48495e-06
7.91337e-05
5.78416e-06
7.57471e-05
7.55745e-06
7.15589e-05
9.96545e-06
6.67005e-05
1.31299e-05
1.66384e-05
6.26768e-05
0.00010657
1.78068e-08
0.000106539
9.14679e-08
0.000106465
2.11922e-07
0.000106345
3.43814e-07
0.000106188
4.4724e-07
0.000106012
5.00638e-07
0.000105833
5.06621e-07
0.000105662
4.82771e-07
0.000105502
4.48669e-07
0.000105353
4.1783e-07
0.000105213
3.96036e-07
0.000105076
3.83493e-07
0.000104942
3.77817e-07
0.000104809
3.76185e-07
0.000104675
3.76374e-07
0.000104542
3.76989e-07
0.000104409
3.77321e-07
0.000104276
3.77093e-07
0.000104143
3.76251e-07
0.000104012
3.74834e-07
0.000103881
3.72901e-07
0.000103751
3.70499e-07
0.000103622
3.67646e-07
0.000103494
3.64349e-07
0.000103368
3.60595e-07
0.000103244
3.56364e-07
0.000103122
3.5163e-07
0.000103001
3.46374e-07
0.000102883
3.40579e-07
0.000102767
3.34246e-07
0.000102654
3.27387e-07
0.000102544
3.20029e-07
0.000102437
3.12219e-07
0.000102332
3.04017e-07
0.000102231
2.95508e-07
0.000102133
2.86789e-07
0.000102039
2.77972e-07
0.000101947
2.69181e-07
0.000101859
2.60557e-07
0.000101774
2.52245e-07
0.000101692
2.44405e-07
0.000101613
2.37199e-07
0.000101536
2.30802e-07
0.000101461
2.25394e-07
0.000101387
2.21157e-07
0.000101315
2.18286e-07
0.000101243
2.16982e-07
0.000101171
2.17458e-07
0.000101099
2.19942e-07
0.000101024
2.2468e-07
0.000100947
2.31938e-07
0.000100867
2.42017e-07
0.000100782
2.5525e-07
0.000100691
2.72023e-07
0.000100593
2.92779e-07
0.000100487
3.18037e-07
0.000100369
3.4841e-07
0.000100239
3.84627e-07
0.000100094
4.27567e-07
9.99314e-05
4.78292e-07
9.97482e-05
5.38099e-07
9.95406e-05
6.08585e-07
9.93046e-05
6.91729e-07
9.90351e-05
7.90006e-07
9.87262e-05
9.06539e-07
9.83707e-05
1.0453e-06
9.796e-05
1.21142e-06
9.74837e-05
1.41153e-06
9.69289e-05
1.65437e-06
9.628e-05
1.95157e-06
9.55176e-05
2.31867e-06
9.46183e-05
2.77672e-06
9.35536e-05
3.35426e-06
9.22906e-05
4.09003e-06
9.07931e-05
5.03591e-06
8.90285e-05
6.25919e-06
8.69813e-05
7.84083e-06
8.46861e-05
9.86208e-06
8.22976e-05
1.23633e-05
8.02217e-05
1.52152e-05
1.77611e-05
7.91082e-05
0.000114036
2.29369e-08
0.000114005
1.226e-07
0.00011393
2.86559e-07
0.000113807
4.67214e-07
0.000113644
6.1012e-07
0.000113459
6.85346e-07
0.00011327
6.95796e-07
0.000113088
6.64956e-07
0.000112918
6.19376e-07
0.000112759
5.77579e-07
0.000112607
5.47679e-07
0.000112461
5.30186e-07
0.000112317
5.22005e-07
0.000112175
5.19377e-07
0.000112033
5.19307e-07
0.000111891
5.19898e-07
0.000111749
5.20173e-07
0.000111607
5.19733e-07
0.000111466
5.18495e-07
0.000111326
5.16502e-07
0.000111186
5.13824e-07
0.000111048
5.10519e-07
0.000110911
5.06616e-07
0.000110775
5.02119e-07
0.000110641
4.97008e-07
0.000110509
4.91259e-07
0.000110379
4.84838e-07
0.00011025
4.77716e-07
0.000110124
4.69876e-07
0.000110001
4.61315e-07
0.00010988
4.52052e-07
0.000109762
4.42129e-07
0.000109647
4.31604e-07
0.000109535
4.20564e-07
0.000109426
4.09123e-07
0.000109321
3.97411e-07
0.000109219
3.85585e-07
0.00010912
3.73815e-07
0.000109024
3.62288e-07
0.000108931
3.51207e-07
0.000108841
3.40784e-07
0.000108754
3.31245e-07
0.000108669
3.22826e-07
0.000108586
3.15771e-07
0.000108505
3.1033e-07
0.000108424
3.06763e-07
0.000108344
3.05347e-07
0.000108263
3.06372e-07
0.000108181
3.10144e-07
0.000108097
3.16994e-07
0.000108011
3.27286e-07
0.000107921
3.41419e-07
0.000107825
3.59842e-07
0.000107723
3.83071e-07
0.000107614
4.11693e-07
0.000107495
4.46399e-07
0.000107365
4.87997e-07
0.000107222
5.37445e-07
0.000107064
5.95889e-07
0.000106888
6.64711e-07
0.00010669
7.45582e-07
0.000106469
8.40545e-07
0.000106218
9.52107e-07
0.000105935
1.08337e-06
0.000105614
1.23821e-06
0.000105248
1.42147e-06
0.000104831
1.63928e-06
0.000104353
1.89947e-06
0.000103806
2.21205e-06
0.000103178
2.58992e-06
0.000102457
3.04979e-06
0.000101631
3.61323e-06
0.000100688
4.30796e-06
9.96192e-05
5.16898e-06
9.84265e-05
6.23892e-06
9.71299e-05
7.56594e-06
9.57853e-05
9.19565e-06
9.4507e-05
1.11504e-05
9.34956e-05
1.33848e-05
9.30245e-05
1.56962e-05
1.75815e-05
9.3214e-05
0.000122025
2.72387e-08
0.000121995
1.52545e-07
0.000121921
3.60508e-07
0.000121797
5.91591e-07
0.00012163
7.76586e-07
0.000121439
8.7656e-07
0.000121241
8.93996e-07
0.000121048
8.57861e-07
0.000120867
8.01597e-07
0.000120696
7.4894e-07
0.000120533
7.10602e-07
0.000120376
6.87648e-07
0.000120222
6.76439e-07
0.00012007
6.72361e-07
0.000119918
6.71671e-07
0.000119767
6.71966e-07
0.000119616
6.7198e-07
0.000119466
6.71181e-07
0.000119316
6.69432e-07
0.000119168
6.66768e-07
0.00011902
6.6327e-07
0.000118873
6.58997e-07
0.000118728
6.53987e-07
0.000118584
6.48235e-07
0.000118442
6.41726e-07
0.000118301
6.34419e-07
0.000118163
6.26279e-07
0.000118027
6.17269e-07
0.000117893
6.07368e-07
0.000117761
5.96577e-07
0.000117632
5.8492e-07
0.000117506
5.72445e-07
0.000117383
5.59234e-07
0.000117263
5.45402e-07
0.000117147
5.31087e-07
0.000117033
5.16462e-07
0.000116923
5.01719e-07
0.000116816
4.87078e-07
0.000116712
4.72776e-07
0.00011661
4.59072e-07
0.000116512
4.46235e-07
0.000116416
4.34552e-07
0.000116322
4.24321e-07
0.00011623
4.1585e-07
0.000116139
4.09459e-07
0.000116048
4.05479e-07
0.000115958
4.04255e-07
0.000115867
4.06155e-07
0.000115775
4.11565e-07
0.00011568
4.209e-07
0.000115582
4.34614e-07
0.00011548
4.53207e-07
0.000115372
4.77238e-07
0.000115258
5.07341e-07
0.000115136
5.44242e-07
0.000115004
5.88784e-07
0.00011486
6.41949e-07
0.000114703
7.04895e-07
0.000114531
7.78999e-07
0.00011434
8.65899e-07
0.000114129
9.67567e-07
0.000113894
1.08638e-06
0.000113632
1.22523e-06
0.000113339
1.38763e-06
0.00011301
1.57791e-06
0.000112641
1.80136e-06
0.000112227
2.06455e-06
0.000111762
2.37563e-06
0.000111241
2.74468e-06
0.000110657
3.18424e-06
0.000110009
3.70979e-06
0.000109293
4.34026e-06
0.000108513
5.09829e-06
0.000107683
6.00999e-06
0.00010683
7.10331e-06
0.000106003
8.40367e-06
0.000105285
9.92451e-06
0.000104797
1.16491e-05
0.000104693
1.35002e-05
0.000105103
1.52965e-05
1.6714e-05
0.000105981
0.000130573
3.04037e-08
0.000130546
1.80221e-07
0.000130475
4.31764e-07
0.000130352
7.14299e-07
0.000130185
9.43978e-07
0.000129989
1.07219e-06
0.000129783
1.10003e-06
0.00012958
1.06119e-06
0.000129386
9.9571e-07
0.000129203
9.32647e-07
0.000129028
8.8565e-07
0.00012886
8.56665e-07
0.000128695
8.41764e-07
0.000128533
8.35624e-07
0.000128371
8.33812e-07
0.000128211
8.33425e-07
0.000128051
8.32886e-07
0.000127892
8.31507e-07
0.000127734
8.29083e-07
0.000127576
8.25624e-07
0.00012742
8.21201e-07
0.000127265
8.1588e-07
0.000127112
8.0969e-07
0.00012696
8.02631e-07
0.00012681
7.94674e-07
0.000126661
7.8578e-07
0.000126515
7.75901e-07
0.00012637
7.64997e-07
0.000126229
7.53047e-07
0.000126089
7.4005e-07
0.000125952
7.26041e-07
0.000125818
7.11083e-07
0.000125687
6.95276e-07
0.000125559
6.78756e-07
0.000125434
6.61697e-07
0.000125312
6.44306e-07
0.000125193
6.26818e-07
0.000125077
6.09501e-07
0.000124964
5.92642e-07
0.000124854
5.76554e-07
0.000124746
5.61563e-07
0.000124641
5.48017e-07
0.000124537
5.36276e-07
0.000124434
5.26711e-07
0.000124332
5.19709e-07
0.000124231
5.15668e-07
0.00012413
5.1501e-07
0.000124027
5.18168e-07
0.000123923
5.25607e-07
0.000123816
5.37825e-07
0.000123705
5.55359e-07
0.00012359
5.78799e-07
0.000123469
6.08801e-07
0.00012334
6.46109e-07
0.000123204
6.91565e-07
0.000123058
7.46137e-07
0.0001229
8.1095e-07
0.000122729
8.87317e-07
0.000122542
9.76779e-07
0.000122338
1.08116e-06
0.000122115
1.20261e-06
0.000121869
1.34371e-06
0.000121599
1.50753e-06
0.0001213
1.69775e-06
0.000120971
1.91876e-06
0.000120609
2.17588e-06
0.00012021
2.47546e-06
0.000119772
2.8251e-06
0.000119295
3.23391e-06
0.000118778
3.71263e-06
0.000118226
4.27379e-06
0.000117647
4.93164e-06
0.000117055
5.70173e-06
0.000116477
6.59977e-06
0.000115953
7.63927e-06
0.000115541
8.82708e-06
0.000115321
1.01557e-05
0.000115391
1.15916e-05
0.000115843
1.3059e-05
0.000116727
1.44244e-05
1.54954e-05
0.000117957
0.000139721
3.2132e-08
0.000139697
2.04551e-07
0.00013963
4.98283e-07
0.000139512
8.32575e-07
0.000139347
1.10939e-06
0.000139149
1.26983e-06
0.000138937
1.31237e-06
0.000138724
1.27433e-06
0.000138519
1.20182e-06
0.000138322
1.12924e-06
0.000138135
1.07353e-06
0.000137954
1.03792e-06
0.000137778
1.01856e-06
0.000137605
1.00959e-06
0.000137434
1.00601e-06
0.000137264
1.00443e-06
0.000137095
1.00295e-06
0.000136927
1.0007e-06
0.00013676
9.97386e-07
0.000136594
9.92963e-07
0.00013643
9.87486e-07
0.000136267
9.8101e-07
0.000136105
9.73559e-07
0.000135945
9.65126e-07
0.000135787
9.55678e-07
0.000135631
9.45167e-07
0.000135477
9.33539e-07
0.000135325
9.20754e-07
0.000135175
9.06787e-07
0.000135028
8.91646e-07
0.000134883
8.75372e-07
0.000134741
8.58041e-07
0.000134602
8.39777e-07
0.000134465
8.20739e-07
0.000134332
8.01135e-07
0.000134201
7.81204e-07
0.000134074
7.61227e-07
0.000133949
7.41512e-07
0.000133826
7.22401e-07
0.000133706
7.04254e-07
0.000133588
6.87459e-07
0.000133472
6.72416e-07
0.000133357
6.59548e-07
0.000133244
6.49288e-07
0.000133131
6.42083e-07
0.000133017
6.38401e-07
0.000132903
6.38721e-07
0.000132788
6.43554e-07
0.000132671
6.53429e-07
0.00013255
6.68915e-07
0.000132425
6.90625e-07
0.000132296
7.19226e-07
0.000132161
7.55457e-07
0.000132018
8.00142e-07
0.000131867
8.54214e-07
0.000131706
9.18733e-07
0.000131534
9.94915e-07
0.000131349
1.08417e-06
0.00013115
1.18812e-06
0.000130935
1.30867e-06
0.000130702
1.44803e-06
0.000130449
1.60881e-06
0.000130175
1.79402e-06
0.000129878
2.00723e-06
0.000129557
2.25256e-06
0.000129211
2.53486e-06
0.000128839
2.8597e-06
0.000128444
3.23349e-06
0.000128027
3.6635e-06
0.000127594
4.1578e-06
0.000127156
4.72511e-06
0.000126726
5.37436e-06
0.000126326
6.11395e-06
0.000125988
6.95042e-06
0.000125754
7.8862e-06
0.000125677
8.9163e-06
0.000125822
1.00234e-05
0.000126254
1.11717e-05
0.000127025
1.23006e-05
0.00012814
1.33213e-05
1.41244e-05
0.000129523
0.00014951
3.21659e-08
0.00014949
2.24597e-07
0.00014943
5.58223e-07
0.000149319
9.43812e-07
0.000149158
1.26997e-06
0.000148961
1.46694e-06
0.000148745
1.52921e-06
0.000148523
1.49632e-06
0.000148305
1.41968e-06
0.000148096
1.33895e-06
0.000147895
1.27468e-06
0.000147702
1.23192e-06
0.000147514
1.20724e-06
0.00014733
1.19458e-06
0.000147148
1.18846e-06
0.000146969
1.18506e-06
0.000146791
1.18217e-06
0.000146614
1.17869e-06
0.000146439
1.17421e-06
0.000146265
1.16861e-06
0.000146093
1.16192e-06
0.000145922
1.15416e-06
0.000145753
1.14536e-06
0.000145585
1.13548e-06
0.000145419
1.12449e-06
0.000145255
1.11234e-06
0.000145094
1.09896e-06
0.000144934
1.08433e-06
0.000144777
1.06841e-06
0.000144622
1.05121e-06
0.000144469
1.0328e-06
0.000144319
1.01326e-06
0.000144172
9.92729e-07
0.000144027
9.71406e-07
0.000143885
9.49521e-07
0.000143746
9.2735e-07
0.000143609
9.05212e-07
0.000143474
8.83461e-07
0.000143342
8.62482e-07
0.000143212
8.42686e-07
0.000143083
8.24511e-07
0.000142956
8.08416e-07
0.00014283
7.94873e-07
0.000142704
7.84373e-07
0.000142579
7.77424e-07
0.000142453
7.74547e-07
0.000142326
7.76285e-07
0.000142197
7.83202e-07
0.000142065
7.95891e-07
0.000141931
8.14976e-07
0.000141792
8.4113e-07
0.000141647
8.75079e-07
0.000141497
9.17618e-07
0.00014134
9.69626e-07
0.000141174
1.03208e-06
0.000141
1.1061e-06
0.000140814
1.19292e-06
0.000140617
1.29397e-06
0.000140407
1.41089e-06
0.000140184
1.54552e-06
0.000139945
1.7e-06
0.00013969
1.87676e-06
0.000139419
2.07858e-06
0.000139131
2.30863e-06
0.000138827
2.57045e-06
0.000138507
2.86803e-06
0.000138175
3.20577e-06
0.000137833
3.58843e-06
0.000137489
4.02106e-06
0.000137152
4.50876e-06
0.000136834
5.05638e-06
0.000136554
5.66803e-06
0.000136335
6.34622e-06
0.000136209
7.09079e-06
0.000136211
7.89734e-06
0.000136385
8.75511e-06
0.000136778
9.64457e-06
0.000137428
1.05349e-05
0.000138359
1.13824e-05
0.000139562
1.21315e-05
1.27213e-05
0.000140978
0.000159984
3.03527e-08
0.000159969
2.39695e-07
0.000159917
6.10179e-07
0.000159815
1.04588e-06
0.000159662
1.42317e-06
0.000159468
1.66108e-06
0.000159249
1.74856e-06
0.00015902
1.72583e-06
0.000158791
1.64858e-06
0.000158569
1.56155e-06
0.000158355
1.4892e-06
0.000158149
1.43886e-06
0.000157949
1.40804e-06
0.000157753
1.39076e-06
0.000157562
1.38125e-06
0.000157372
1.37533e-06
0.000157185
1.37046e-06
0.000157
1.36533e-06
0.000156817
1.35936e-06
0.000156635
1.35235e-06
0.000156455
1.34426e-06
0.000156276
1.33508e-06
0.0001561
1.32481e-06
0.000155925
1.31341e-06
0.000155751
1.30084e-06
0.00015558
1.28703e-06
0.000155411
1.27193e-06
0.000155244
1.25549e-06
0.00015508
1.2377e-06
0.000154917
1.21858e-06
0.000154757
1.1982e-06
0.000154599
1.17665e-06
0.000154444
1.15412e-06
0.000154291
1.1308e-06
0.00015414
1.10696e-06
0.000153992
1.08292e-06
0.000153845
1.05902e-06
0.000153701
1.03566e-06
0.000153559
1.01327e-06
0.000153418
9.92296e-07
0.000153278
9.73233e-07
0.000153139
9.56581e-07
0.000153001
9.42862e-07
0.000152863
9.32616e-07
0.000152725
9.26399e-07
0.000152585
9.24782e-07
0.000152444
9.28354e-07
0.000152301
9.37726e-07
0.000152155
9.53533e-07
0.000152006
9.76445e-07
0.000151852
1.00717e-06
0.000151693
1.04646e-06
0.000151528
1.09515e-06
0.000151357
1.15413e-06
0.000151178
1.22438e-06
0.00015099
1.307e-06
0.000150793
1.40321e-06
0.000150587
1.51438e-06
0.000150369
1.64202e-06
0.000150141
1.78784e-06
0.000149901
1.95375e-06
0.00014965
2.14185e-06
0.000149389
2.35449e-06
0.000149118
2.59421e-06
0.000148839
2.86376e-06
0.000148555
3.16605e-06
0.000148271
3.50409e-06
0.000147993
3.88086e-06
0.00014773
4.29916e-06
0.000147492
4.76134e-06
0.000147294
5.26898e-06
0.000147154
5.8224e-06
0.000147094
6.42008e-06
0.000147142
7.05787e-06
0.000147325
7.72807e-06
0.000147676
8.41848e-06
0.000148223
9.11141e-06
0.000148989
9.78309e-06
0.000149982
1.0404e-05
0.000151187
1.09405e-05
1.13591e-05
0.000152563
0.000171192
2.66728e-08
0.000171182
2.4957e-07
0.000171139
6.53382e-07
0.000171047
1.13739e-06
0.000170904
1.56711e-06
0.000170715
1.8501e-06
0.000170495
1.96841e-06
0.00017026
1.9612e-06
0.000170022
1.88737e-06
0.000169787
1.79632e-06
0.000169561
1.7167e-06
0.000169341
1.6586e-06
0.000169129
1.62091e-06
0.000168923
1.59811e-06
0.000168721
1.58435e-06
0.000168522
1.57516e-06
0.000168326
1.56773e-06
0.000168133
1.56048e-06
0.000167941
1.55266e-06
0.000167752
1.54397e-06
0.000167564
1.53427e-06
0.000167378
1.52352e-06
0.000167194
1.51167e-06
0.000167012
1.49868e-06
0.000166832
1.48449e-06
0.000166654
1.46903e-06
0.000166478
1.45224e-06
0.000166303
1.43408e-06
0.000166131
1.41454e-06
0.000165962
1.39366e-06
0.000165794
1.37151e-06
0.000165628
1.34822e-06
0.000165465
1.32397e-06
0.000165303
1.299e-06
0.000165144
1.2736e-06
0.000164986
1.24811e-06
0.000164831
1.22291e-06
0.000164676
1.19843e-06
0.000164523
1.17513e-06
0.000164371
1.15351e-06
0.00016422
1.13408e-06
0.000164069
1.1174e-06
0.000163919
1.10402e-06
0.000163767
1.09453e-06
0.000163616
1.08951e-06
0.000163462
1.08956e-06
0.000163307
1.09533e-06
0.00016315
1.10744e-06
0.000162989
1.12655e-06
0.000162825
1.15335e-06
0.000162657
1.18857e-06
0.000162483
1.23296e-06
0.000162305
1.28734e-06
0.00016212
1.35258e-06
0.000161929
1.42961e-06
0.000161731
1.51947e-06
0.000161525
1.62327e-06
0.000161312
1.74224e-06
0.000161091
1.87769e-06
0.000160863
2.03108e-06
0.000160627
2.20397e-06
0.000160386
2.39801e-06
0.000160141
2.61497e-06
0.000159894
2.85666e-06
0.000159648
3.12491e-06
0.000159408
3.42148e-06
0.00015918
3.74798e-06
0.00015897
4.10574e-06
0.000158789
4.4956e-06
0.000158649
4.91771e-06
0.000158562
5.37124e-06
0.000158546
5.85406e-06
0.000158619
6.36233e-06
0.000158802
6.89011e-06
0.000159116
7.42896e-06
0.000159582
7.96759e-06
0.000160217
8.49172e-06
0.000161031
8.98426e-06
0.000162024
9.42599e-06
0.000163182
9.79706e-06
1.00792e-05
0.000164477
0.000183184
2.12337e-08
0.00018318
2.54351e-07
0.000183145
6.87787e-07
0.000183065
1.21786e-06
0.000182932
1.70069e-06
0.00018275
2.03242e-06
0.000182531
2.18687e-06
0.000182292
2.20059e-06
0.000182046
2.13445e-06
0.0001818
2.04205e-06
0.000181561
1.95633e-06
0.00018133
1.89057e-06
0.000181106
1.8455e-06
0.000180889
1.81641e-06
0.000180677
1.79758e-06
0.000180469
1.7844e-06
0.000180264
1.7738e-06
0.000180063
1.76395e-06
0.000179863
1.75393e-06
0.000179666
1.74327e-06
0.000179471
1.73175e-06
0.000179278
1.71928e-06
0.000179087
1.70575e-06
0.000178898
1.69112e-06
0.000178711
1.67529e-06
0.000178526
1.65819e-06
0.000178342
1.63978e-06
0.000178161
1.62001e-06
0.000177982
1.59889e-06
0.000177805
1.57645e-06
0.00017763
1.55279e-06
0.000177456
1.52805e-06
0.000177284
1.50244e-06
0.000177114
1.47621e-06
0.000176946
1.44968e-06
0.000176779
1.4232e-06
0.000176613
1.3972e-06
0.000176449
1.37212e-06
0.000176285
1.34845e-06
0.000176121
1.32672e-06
0.000175958
1.30748e-06
0.000175795
1.2913e-06
0.000175631
1.27876e-06
0.000175467
1.27047e-06
0.000175301
1.26705e-06
0.000175134
1.26913e-06
0.000174965
1.27733e-06
0.000174793
1.29232e-06
0.000174618
1.31476e-06
0.000174439
1.34532e-06
0.000174257
1.3847e-06
0.000174071
1.43365e-06
0.000173879
1.49291e-06
0.000173683
1.5633e-06
0.000173482
1.64566e-06
0.000173276
1.74089e-06
0.000173065
1.84994e-06
0.000172849
1.97382e-06
0.000172629
2.11358e-06
0.000172405
2.27033e-06
0.00017218
2.44521e-06
0.000171955
2.63934e-06
0.000171732
2.85385e-06
0.000171515
3.08978e-06
0.000171309
3.34804e-06
0.000171117
3.62933e-06
0.000170948
3.93404e-06
0.000170808
4.26211e-06
0.000170707
4.61293e-06
0.000170656
4.9851e-06
0.000170667
5.37632e-06
0.000170755
5.78315e-06
0.000170933
6.20085e-06
0.000171216
6.62321e-06
0.000171619
7.04244e-06
0.000172153
7.44924e-06
0.000172828
7.83289e-06
0.000173647
8.18164e-06
0.000174606
8.48338e-06
0.000175692
8.72653e-06
8.90127e-06
0.000176886
0.000196017
1.42573e-08
0.000196017
2.54538e-07
0.00019599
7.1401e-07
0.000195921
1.28767e-06
0.000195798
1.8237e-06
0.000195624
2.20705e-06
0.000195408
2.40238e-06
0.000195167
2.44213e-06
0.000194914
2.38796e-06
0.00019466
2.29714e-06
0.00019441
2.20685e-06
0.000194167
2.13386e-06
0.000193932
2.08119e-06
0.000193705
2.04522e-06
0.000193483
2.02065e-06
0.000193266
2.00283e-06
0.000193053
1.98849e-06
0.000192843
1.97559e-06
0.000192636
1.963e-06
0.000192431
1.9501e-06
0.000192229
1.93658e-06
0.000192029
1.92224e-06
0.000191831
1.90696e-06
0.000191635
1.89064e-06
0.000191441
1.87319e-06
0.000191249
1.85452e-06
0.000191059
1.83459e-06
0.00019087
1.81337e-06
0.000190684
1.79085e-06
0.000190499
1.76711e-06
0.000190316
1.74223e-06
0.000190135
1.71639e-06
0.000189954
1.6898e-06
0.000189776
1.66274e-06
0.000189598
1.63554e-06
0.000189421
1.60858e-06
0.000189245
1.58229e-06
0.00018907
1.55714e-06
0.000188894
1.53364e-06
0.000188719
1.51234e-06
0.000188544
1.49379e-06
0.000188368
1.47859e-06
0.000188191
1.46734e-06
0.000188013
1.46065e-06
0.000187834
1.45914e-06
0.000187652
1.46344e-06
0.000187469
1.47419e-06
0.000187283
1.49202e-06
0.000187094
1.51757e-06
0.000186903
1.55149e-06
0.000186708
1.59443e-06
0.000186509
1.64705e-06
0.000186308
1.71004e-06
0.000186102
1.78407e-06
0.000185894
1.86987e-06
0.000185683
1.96814e-06
0.00018547
2.07963e-06
0.000185255
2.20507e-06
0.00018504
2.3452e-06
0.000184827
2.50073e-06
0.000184616
2.67234e-06
0.000184412
2.86062e-06
0.000184217
3.06607e-06
0.000184035
3.289e-06
0.000183871
3.52951e-06
0.000183731
3.78743e-06
0.00018362
4.06218e-06
0.000183547
4.35274e-06
0.00018352
4.65751e-06
0.000183549
4.97425e-06
0.000183643
5.29994e-06
0.000183812
5.63074e-06
0.000184069
5.96192e-06
0.000184422
6.28788e-06
0.000184879
6.60216e-06
0.000185448
6.8976e-06
0.000186132
7.16657e-06
0.000186929
7.40131e-06
0.000187836
7.59435e-06
0.00018884
7.73906e-06
7.83027e-06
0.000189928
0.000209748
6.03258e-09
0.000209751
2.5088e-07
0.000209732
7.33163e-07
0.000209672
1.34789e-06
0.000209559
1.93667e-06
0.000209393
2.37367e-06
0.000209182
2.61375e-06
0.00020894
2.68404e-06
0.000208683
2.64594e-06
0.000208421
2.5597e-06
0.000208162
2.46666e-06
0.000207909
2.38726e-06
0.000207664
2.32707e-06
0.000207426
2.28392e-06
0.000207195
2.25312e-06
0.000206969
2.23013e-06
0.000206748
2.21157e-06
0.00020653
2.19522e-06
0.000206316
2.17974e-06
0.000206104
2.16437e-06
0.000205895
2.14867e-06
0.000205688
2.13237e-06
0.000205483
2.11528e-06
0.00020528
2.09729e-06
0.000205079
2.07827e-06
0.00020488
2.05814e-06
0.000204682
2.03684e-06
0.000204487
2.01435e-06
0.000204293
1.99069e-06
0.0002041
1.96592e-06
0.000203909
1.94017e-06
0.000203719
1.9136e-06
0.00020353
1.88646e-06
0.000203342
1.85902e-06
0.000203154
1.83163e-06
0.000202968
1.80468e-06
0.000202781
1.77861e-06
0.000202594
1.75391e-06
0.000202407
1.73109e-06
0.00020222
1.7107e-06
0.000202032
1.69331e-06
0.000201843
1.6795e-06
0.000201653
1.66987e-06
0.000201462
1.66504e-06
0.000201269
1.66561e-06
0.000201074
1.67219e-06
0.000200877
1.68538e-06
0.000200678
1.70579e-06
0.000200476
1.734e-06
0.000200272
1.7706e-06
0.000200066
1.81616e-06
0.000199858
1.87124e-06
0.000199648
1.93641e-06
0.000199437
2.0122e-06
0.000199224
2.09914e-06
0.000199012
2.19775e-06
0.0001988
2.3085e-06
0.000198591
2.43184e-06
0.000198386
2.56817e-06
0.000198187
2.7178e-06
0.000197996
2.88096e-06
0.000197817
3.05774e-06
0.000197654
3.24807e-06
0.000197509
3.45169e-06
0.000197389
3.66804e-06
0.000197299
3.8963e-06
0.000197245
4.13526e-06
0.000197233
4.38331e-06
0.000197271
4.63836e-06
0.000197366
4.89781e-06
0.000197526
5.15855e-06
0.000197758
5.4169e-06
0.00019807
5.66868e-06
0.000198467
5.90925e-06
0.000198954
6.13363e-06
0.000199534
6.33662e-06
0.000200206
6.51301e-06
0.000200967
6.65784e-06
0.000201813
6.76664e-06
0.000202735
6.83572e-06
6.86247e-06
0.00020372
0.00022444
-3.1469e-09
0.000224446
2.44229e-07
0.000224433
7.46619e-07
0.000224381
1.40005e-06
0.000224277
2.0407e-06
0.000224119
2.53254e-06
0.000223912
2.82026e-06
0.000223672
2.92486e-06
0.000223412
2.90649e-06
0.000223144
2.82782e-06
0.000222878
2.73405e-06
0.000222616
2.64935e-06
0.000222362
2.58206e-06
0.000222116
2.53171e-06
0.000221876
2.49442e-06
0.000221642
2.46592e-06
0.000221412
2.44279e-06
0.000221187
2.42267e-06
0.000220965
2.40405e-06
0.000220746
2.38602e-06
0.000220529
2.36802e-06
0.000220315
2.3497e-06
0.000220103
2.33081e-06
0.000219893
2.3112e-06
0.000219685
2.29071e-06
0.000219479
2.26927e-06
0.000219274
2.2468e-06
0.000219071
2.2233e-06
0.000218869
2.19878e-06
0.000218668
2.17332e-06
0.000218469
2.14706e-06
0.00021827
2.12017e-06
0.000218071
2.0929e-06
0.000217873
2.06553e-06
0.000217676
2.03843e-06
0.000217478
2.01198e-06
0.00021728
1.98662e-06
0.000217082
1.96283e-06
0.000216883
1.94114e-06
0.000216684
1.92206e-06
0.000216483
1.90618e-06
0.000216281
1.89405e-06
0.000216078
1.88625e-06
0.000215874
1.88338e-06
0.000215667
1.886e-06
0.000215459
1.89469e-06
0.00021525
1.91e-06
0.000215039
1.93246e-06
0.000214826
1.9626e-06
0.000214612
2.0009e-06
0.000214397
2.04783e-06
0.000214181
2.10384e-06
0.000213966
2.16932e-06
0.000213751
2.24465e-06
0.000213538
2.33015e-06
0.000213327
2.42612e-06
0.000213122
2.53276e-06
0.000212922
2.65023e-06
0.00021273
2.77859e-06
0.000212549
2.9178e-06
0.000212382
3.06768e-06
0.000212231
3.22792e-06
0.0002121
3.398e-06
0.000211994
3.57719e-06
0.000211918
3.76454e-06
0.000211875
3.95879e-06
0.000211871
4.1584e-06
0.000211913
4.3615e-06
0.000212005
4.56588e-06
0.000212154
4.76899e-06
0.000212365
4.96795e-06
0.000212642
5.15958e-06
0.00021299
5.34046e-06
0.000213412
5.507e-06
0.000213909
5.65556e-06
0.000214483
5.78254e-06
0.000215131
5.88453e-06
0.00021585
5.95847e-06
0.000216634
6.00181e-06
0.000217476
6.01258e-06
5.9896e-06
0.000218368
0.000240161
-1.30012e-08
0.000240169
2.35423e-07
0.00024016
7.55805e-07
0.000240115
1.44583e-06
0.000240018
2.1372e-06
0.000239867
2.68427e-06
0.000239666
3.0216e-06
0.000239428
3.16343e-06
0.000239167
3.16796e-06
0.000238896
3.09964e-06
0.000238623
3.00724e-06
0.000238355
2.91861e-06
0.000238093
2.84496e-06
0.000237838
2.78768e-06
0.00023759
2.74388e-06
0.000237348
2.7097e-06
0.000237111
2.68179e-06
0.000236878
2.6577e-06
0.000236649
2.63578e-06
0.000236423
2.61499e-06
0.000236199
2.59464e-06
0.000235978
2.57431e-06
0.000235759
2.55368e-06
0.000235542
2.53256e-06
0.000235326
2.51077e-06
0.000235112
2.48822e-06
0.0002349
2.46484e-06
0.000234689
2.44061e-06
0.000234478
2.41556e-06
0.000234269
2.38978e-06
0.00023406
2.3634e-06
0.000233852
2.33661e-06
0.000233643
2.30964e-06
0.000233435
2.2828e-06
0.000233227
2.25642e-06
0.000233018
2.2309e-06
0.000232809
2.20667e-06
0.000232599
2.18419e-06
0.000232388
2.16395e-06
0.000232176
2.14649e-06
0.000231963
2.13233e-06
0.000231748
2.12201e-06
0.000231533
2.11608e-06
0.000231315
2.11507e-06
0.000231097
2.11951e-06
0.000230877
2.12991e-06
0.000230656
2.14675e-06
0.000230435
2.17048e-06
0.000230212
2.20152e-06
0.00022999
2.24026e-06
0.000229769
2.28702e-06
0.000229548
2.34212e-06
0.00022933
2.40578e-06
0.000229115
2.4782e-06
0.000228905
2.5595e-06
0.0002287
2.64973e-06
0.000228504
2.74886e-06
0.000228317
2.85677e-06
0.000228142
2.97325e-06
0.000227982
3.09793e-06
0.00022784
3.23034e-06
0.000227718
3.36983e-06
0.000227621
3.5156e-06
0.000227553
3.66664e-06
0.000227516
3.82174e-06
0.000227516
3.97947e-06
0.000227558
4.13819e-06
0.000227644
4.29602e-06
0.00022778
4.45088e-06
0.00022797
4.60048e-06
0.000228216
4.74239e-06
0.000228523
4.87403e-06
0.000228891
4.99278e-06
0.000229323
5.09601e-06
0.000229819
5.18117e-06
0.000230376
5.2459e-06
0.000230993
5.28807e-06
0.000231666
5.30589e-06
0.000232391
5.29799e-06
0.00023316
5.26345e-06
5.20184e-06
0.000233968
0.000256982
-2.3307e-08
0.000256993
2.25204e-07
0.000256987
7.6202e-07
0.000256946
1.48688e-06
0.000256855
2.22765e-06
0.00025671
2.82978e-06
0.000256514
3.2178e-06
0.000256279
3.39895e-06