/*--------------------------------*- C++ -*----------------------------------*\
| =========                 |                                                 |
| \\      /  F ield         | OpenFOAM: The Open Source CFD Toolbox           |
|  \\    /   O peration     | Version:  2106                                  |
|   \\  /    A nd           | Website:  www.openfoam.com                      |
|    \\/     M anipulation  |                                                 |
\*---------------------------------------------------------------------------*/
FoamFile
{
    version     2.0;
    format      ascii;
    arch        "LSB;label=32;scalar=64";
    class       volScalarField;
    location    "0.59";
    object      T;
}
// * * * * * * * * * * * * * * * * * * * * * * * * * * * * * * * * * * * * * //

dimensions      [0 0 0 1 0 0 0];

internalField   nonuniform List<scalar> 
12013
(
300
300
300
300
300
300
300
300.001
300.001
300.001
300.001
300.002
300.002
300.003
300.003
300.004
300.005
300.006
300.007
300.009
300.01
300.012
300.015
300.017
300.02
300.023
300.026
300.03
300.035
300.039
300.045
300.051
300.057
300.064
300.072
300.08
300.089
300.099
300.109
300.121
300.133
300.146
300.16
300.174
300.19
300.207
300.225
300.243
300.263
300.284
300.307
300.33
300.354
300.38
300.407
300.436
300.466
300.497
300.529
300.563
300.599
300.636
300.675
300.716
300.759
300.803
300.85
300.899
300.95
301.003
301.059
301.119
301.181
301.247
301.318
301.393
301.475
301.564
301.663
301.777
301.913
300
300
300
300
300
300
300
300.001
300.001
300.001
300.001
300.002
300.002
300.003
300.003
300.004
300.005
300.006
300.007
300.009
300.01
300.012
300.015
300.017
300.02
300.023
300.026
300.03
300.035
300.039
300.045
300.051
300.057
300.064
300.072
300.08
300.089
300.099
300.109
300.12
300.133
300.146
300.159
300.174
300.19
300.207
300.224
300.243
300.263
300.284
300.306
300.33
300.354
300.38
300.407
300.435
300.465
300.496
300.529
300.563
300.599
300.636
300.675
300.715
300.758
300.802
300.849
300.897
300.948
301.002
301.058
301.117
301.179
301.244
301.314
301.389
301.469
301.555
301.65
301.755
301.872
300
300
300
300
300
300
300
300.001
300.001
300.001
300.001
300.002
300.002
300.003
300.003
300.004
300.005
300.006
300.007
300.009
300.01
300.012
300.014
300.017
300.02
300.023
300.026
300.03
300.035
300.039
300.045
300.051
300.057
300.064
300.072
300.08
300.089
300.099
300.109
300.12
300.132
300.145
300.159
300.174
300.19
300.207
300.224
300.243
300.263
300.284
300.306
300.329
300.354
300.379
300.406
300.435
300.464
300.496
300.528
300.562
300.598
300.635
300.673
300.714
300.756
300.8
300.847
300.895
300.945
300.998
301.054
301.112
301.173
301.238
301.306
301.379
301.456
301.538
301.626
301.72
301.818
300
300
300
300
300
300
300
300.001
300.001
300.001
300.001
300.002
300.002
300.003
300.003
300.004
300.005
300.006
300.007
300.009
300.01
300.012
300.014
300.017
300.02
300.023
300.026
300.03
300.035
300.039
300.045
300.05
300.057
300.064
300.071
300.08
300.089
300.098
300.109
300.12
300.132
300.145
300.159
300.174
300.189
300.206
300.224
300.243
300.262
300.283
300.305
300.329
300.353
300.379
300.406
300.434
300.463
300.494
300.527
300.56
300.596
300.633
300.671
300.711
300.753
300.797
300.843
300.891
300.941
300.993
301.047
301.104
301.164
301.227
301.293
301.363
301.436
301.513
301.594
301.677
301.761
300
300
300
300
300
300
300
300.001
300.001
300.001
300.001
300.002
300.002
300.003
300.003
300.004
300.005
300.006
300.007
300.009
300.01
300.012
300.014
300.017
300.02
300.023
300.026
300.03
300.034
300.039
300.045
300.05
300.057
300.064
300.071
300.08
300.089
300.098
300.109
300.12
300.132
300.145
300.159
300.173
300.189
300.206
300.223
300.242
300.262
300.282
300.304
300.328
300.352
300.377
300.404
300.432
300.462
300.492
300.524
300.558
300.593
300.63
300.668
300.708
300.749
300.792
300.838
300.885
300.934
300.985
301.038
301.094
301.152
301.213
301.276
301.342
301.411
301.482
301.555
301.628
301.702
300
300
300
300
300
300
300
300.001
300.001
300.001
300.001
300.002
300.002
300.003
300.003
300.004
300.005
300.006
300.007
300.009
300.01
300.012
300.014
300.017
300.02
300.023
300.026
300.03
300.034
300.039
300.044
300.05
300.057
300.064
300.071
300.079
300.088
300.098
300.108
300.119
300.131
300.144
300.158
300.173
300.188
300.205
300.222
300.241
300.261
300.281
300.303
300.326
300.35
300.376
300.402
300.43
300.459
300.49
300.521
300.555
300.589
300.626
300.663
300.703
300.743
300.786
300.83
300.876
300.924
300.974
301.026
301.08
301.136
301.194
301.254
301.316
301.38
301.445
301.511
301.577
301.642
300
300
300
300
300
300
300
300.001
300.001
300.001
300.001
300.002
300.002
300.003
300.003
300.004
300.005
300.006
300.007
300.009
300.01
300.012
300.014
300.017
300.02
300.023
300.026
300.03
300.034
300.039
300.044
300.05
300.056
300.063
300.071
300.079
300.088
300.097
300.108
300.119
300.131
300.144
300.157
300.172
300.187
300.204
300.221
300.24
300.259
300.28
300.301
300.324
300.348
300.373
300.4
300.427
300.456
300.486
300.518
300.55
300.585
300.62
300.657
300.696
300.736
300.778
300.821
300.866
300.912
300.961
301.011
301.062
301.116
301.171
301.227
301.285
301.344
301.404
301.463
301.523
301.581
300
300
300
300
300
300
300
300.001
300.001
300.001
300.001
300.002
300.002
300.003
300.003
300.004
300.005
300.006
300.007
300.009
300.01
300.012
300.014
300.017
300.019
300.023
300.026
300.03
300.034
300.039
300.044
300.05
300.056
300.063
300.07
300.079
300.087
300.097
300.107
300.118
300.13
300.143
300.156
300.171
300.186
300.203
300.22
300.238
300.257
300.278
300.299
300.322
300.345
300.37
300.396
300.423
300.452
300.482
300.513
300.545
300.578
300.613
300.65
300.687
300.727
300.767
300.809
300.853
300.898
300.944
300.992
301.041
301.092
301.143
301.196
301.25
301.304
301.359
301.413
301.467
301.519
300
300
300
300
300
300
300
300.001
300.001
300.001
300.001
300.002
300.002
300.003
300.003
300.004
300.005
300.006
300.007
300.009
300.01
300.012
300.014
300.017
300.019
300.022
300.026
300.03
300.034
300.039
300.044
300.049
300.056
300.063
300.07
300.078
300.087
300.096
300.107
300.117
300.129
300.142
300.155
300.17
300.185
300.201
300.218
300.236
300.255
300.275
300.296
300.319
300.342
300.367
300.392
300.419
300.447
300.476
300.506
300.538
300.571
300.605
300.64
300.677
300.715
300.754
300.795
300.837
300.88
300.924
300.97
301.016
301.064
301.112
301.162
301.211
301.261
301.311
301.36
301.409
301.457
300
300
300
300
300
300
300
300.001
300.001
300.001
300.001
300.002
300.002
300.003
300.003
300.004
300.005
300.006
300.007
300.009
300.01
300.012
300.014
300.017
300.019
300.022
300.026
300.029
300.034
300.038
300.043
300.049
300.055
300.062
300.069
300.077
300.086
300.096
300.106
300.116
300.128
300.141
300.154
300.168
300.183
300.199
300.216
300.234
300.252
300.272
300.293
300.315
300.338
300.362
300.387
300.413
300.441
300.469
300.499
300.53
300.562
300.595
300.629
300.665
300.701
300.739
300.778
300.818
300.859
300.901
300.944
300.988
301.033
301.078
301.124
301.169
301.215
301.261
301.306
301.35
301.393
300
300
300
300
300
300
300
300.001
300.001
300.001
300.001
300.002
300.002
300.003
300.003
300.004
300.005
300.006
300.007
300.009
300.01
300.012
300.014
300.016
300.019
300.022
300.025
300.029
300.033
300.038
300.043
300.049
300.055
300.061
300.069
300.077
300.085
300.095
300.105
300.115
300.127
300.139
300.152
300.166
300.181
300.196
300.213
300.231
300.249
300.269
300.289
300.311
300.333
300.357
300.381
300.407
300.433
300.461
300.49
300.52
300.551
300.583
300.616
300.65
300.685
300.722
300.759
300.797
300.836
300.875
300.916
300.957
300.998
301.04
301.082
301.124
301.166
301.208
301.249
301.289
301.329
300
300
300
300
300
300
300
300.001
300.001
300.001
300.001
300.002
300.002
300.003
300.003
300.004
300.005
300.006
300.007
300.008
300.01
300.012
300.014
300.016
300.019
300.022
300.025
300.029
300.033
300.038
300.043
300.048
300.054
300.061
300.068
300.076
300.084
300.093
300.103
300.114
300.125
300.137
300.15
300.164
300.178
300.194
300.21
300.227
300.245
300.264
300.284
300.305
300.327
300.35
300.374
300.399
300.425
300.452
300.479
300.508
300.538
300.569
300.601
300.633
300.667
300.701
300.737
300.773
300.809
300.846
300.884
300.922
300.961
301
301.038
301.077
301.115
301.153
301.191
301.227
301.263
300
300
300
300
300
300
300
300.001
300.001
300.001
300.001
300.002
300.002
300.003
300.003
300.004
300.005
300.006
300.007
300.008
300.01
300.012
300.014
300.016
300.019
300.022
300.025
300.028
300.033
300.037
300.042
300.047
300.053
300.06
300.067
300.075
300.083
300.092
300.102
300.112
300.123
300.135
300.147
300.161
300.175
300.19
300.206
300.223
300.24
300.259
300.278
300.299
300.32
300.342
300.366
300.39
300.415
300.44
300.467
300.495
300.524
300.553
300.583
300.614
300.646
300.679
300.712
300.746
300.78
300.815
300.85
300.885
300.921
300.956
300.992
301.027
301.062
301.097
301.131
301.164
301.197
300
300
300
300
300
300
300
300.001
300.001
300.001
300.001
300.002
300.002
300.003
300.003
300.004
300.005
300.006
300.007
300.008
300.01
300.011
300.013
300.016
300.018
300.021
300.024
300.028
300.032
300.036
300.041
300.047
300.053
300.059
300.066
300.073
300.081
300.09
300.1
300.11
300.121
300.132
300.145
300.158
300.171
300.186
300.202
300.218
300.235
300.253
300.272
300.292
300.312
300.334
300.356
300.379
300.403
300.428
300.453
300.48
300.507
300.535
300.564
300.593
300.623
300.653
300.684
300.716
300.748
300.78
300.812
300.845
300.878
300.91
300.943
300.975
301.007
301.039
301.07
301.1
301.13
300
300
300
300
300
300
300
300.001
300.001
300.001
300.001
300.002
300.002
300.003
300.003
300.004
300.005
300.006
300.007
300.008
300.01
300.011
300.013
300.015
300.018
300.021
300.024
300.028
300.031
300.036
300.041
300.046
300.051
300.058
300.064
300.072
300.08
300.088
300.098
300.107
300.118
300.129
300.141
300.154
300.167
300.181
300.196
300.212
300.229
300.246
300.264
300.283
300.303
300.323
300.345
300.367
300.39
300.413
300.438
300.463
300.488
300.515
300.542
300.569
300.597
300.626
300.655
300.684
300.713
300.743
300.773
300.803
300.833
300.862
300.892
300.922
300.951
300.979
301.007
301.035
301.062
300
300
300
300
300
300
300
300.001
300.001
300.001
300.001
300.002
300.002
300.002
300.003
300.004
300.005
300.006
300.007
300.008
300.009
300.011
300.013
300.015
300.018
300.02
300.023
300.027
300.031
300.035
300.04
300.045
300.05
300.056
300.063
300.07
300.078
300.086
300.095
300.105
300.115
300.126
300.137
300.149
300.162
300.176
300.19
300.206
300.222
300.238
300.256
300.274
300.292
300.312
300.332
300.353
300.375
300.397
300.42
300.444
300.468
300.493
300.518
300.543
300.569
300.596
300.622
300.649
300.677
300.704
300.731
300.758
300.786
300.813
300.84
300.866
300.893
300.919
300.944
300.969
300.994
300
300
300
300
300
300
300
300.001
300.001
300.001
300.001
300.002
300.002
300.002
300.003
300.004
300.004
300.005
300.006
300.008
300.009
300.011
300.013
300.015
300.017
300.02
300.023
300.026
300.03
300.034
300.039
300.043
300.049
300.055
300.061
300.068
300.075
300.084
300.092
300.101
300.111
300.122
300.133
300.144
300.157
300.17
300.184
300.198
300.213
300.229
300.246
300.263
300.281
300.299
300.318
300.338
300.358
300.379
300.401
300.423
300.445
300.468
300.492
300.515
300.539
300.564
300.588
300.613
300.638
300.663
300.687
300.712
300.737
300.762
300.786
300.81
300.834
300.857
300.881
300.903
300.925
300
300
300
300
300
300
300
300.001
300.001
300.001
300.001
300.002
300.002
300.002
300.003
300.004
300.004
300.005
300.006
300.007
300.009
300.01
300.012
300.014
300.017
300.019
300.022
300.025
300.029
300.033
300.037
300.042
300.047
300.053
300.059
300.066
300.073
300.081
300.089
300.098
300.107
300.117
300.128
300.139
300.151
300.163
300.176
300.19
300.204
300.219
300.235
300.251
300.268
300.285
300.303
300.322
300.341
300.36
300.38
300.4
300.421
300.442
300.464
300.486
300.508
300.53
300.552
300.575
300.597
300.62
300.642
300.665
300.687
300.709
300.731
300.753
300.774
300.796
300.816
300.837
300.857
300
300
300
300
300
300
300
300.001
300.001
300.001
300.001
300.001
300.002
300.002
300.003
300.003
300.004
300.005
300.006
300.007
300.009
300.01
300.012
300.014
300.016
300.019
300.021
300.024
300.028
300.032
300.036
300.04
300.045
300.051
300.057
300.063
300.07
300.077
300.085
300.094
300.102
300.112
300.122
300.133
300.144
300.156
300.168
300.181
300.194
300.208
300.223
300.238
300.254
300.27
300.286
300.304
300.321
300.339
300.358
300.376
300.395
300.415
300.434
300.454
300.474
300.494
300.515
300.535
300.555
300.576
300.596
300.616
300.636
300.656
300.676
300.695
300.714
300.733
300.752
300.77
300.788
300
300
300
300
300
300
300
300.001
300.001
300.001
300.001
300.001
300.002
300.002
300.003
300.003
300.004
300.005
300.006
300.007
300.008
300.01
300.011
300.013
300.015
300.018
300.021
300.023
300.027
300.03
300.034
300.039
300.043
300.049
300.054
300.06
300.067
300.074
300.081
300.089
300.097
300.106
300.116
300.126
300.136
300.147
300.159
300.171
300.183
300.196
300.21
300.224
300.238
300.253
300.269
300.284
300.3
300.317
300.334
300.351
300.368
300.386
300.403
300.421
300.439
300.458
300.476
300.494
300.512
300.531
300.549
300.567
300.585
300.602
300.62
300.637
300.654
300.671
300.688
300.704
300.72
300
300
300
300
300
300
300
300
300.001
300.001
300.001
300.001
300.002
300.002
300.003
300.003
300.004
300.005
300.006
300.007
300.008
300.009
300.011
300.013
300.015
300.017
300.02
300.022
300.025
300.029
300.033
300.037
300.041
300.046
300.051
300.057
300.063
300.07
300.077
300.084
300.092
300.1
300.109
300.118
300.128
300.138
300.149
300.16
300.172
300.184
300.196
300.209
300.222
300.236
300.25
300.264
300.279
300.294
300.309
300.324
300.34
300.356
300.372
300.388
300.404
300.42
300.436
300.453
300.469
300.485
300.501
300.517
300.533
300.549
300.564
300.58
300.595
300.61
300.624
300.639
300.653
300
300
300
300
300
300
300
300
300.001
300.001
300.001
300.001
300.002
300.002
300.002
300.003
300.004
300.004
300.005
300.006
300.007
300.009
300.01
300.012
300.014
300.016
300.018
300.021
300.024
300.027
300.031
300.035
300.039
300.043
300.048
300.053
300.059
300.065
300.072
300.079
300.086
300.093
300.102
300.11
300.119
300.128
300.138
300.148
300.159
300.17
300.181
300.193
300.205
300.217
300.23
300.243
300.256
300.269
300.283
300.297
300.311
300.325
300.339
300.353
300.368
300.382
300.396
300.411
300.425
300.439
300.453
300.468
300.481
300.495
300.509
300.522
300.536
300.549
300.562
300.575
300.587
300
300
300
300
300
300
300
300
300.001
300.001
300.001
300.001
300.001
300.002
300.002
300.003
300.003
300.004
300.005
300.006
300.007
300.008
300.01
300.011
300.013
300.015
300.017
300.02
300.022
300.025
300.029
300.032
300.036
300.04
300.045
300.05
300.055
300.06
300.066
300.073
300.079
300.086
300.094
300.102
300.11
300.118
300.127
300.136
300.146
300.156
300.166
300.176
300.187
300.198
300.209
300.221
300.232
300.244
300.256
300.269
300.281
300.293
300.306
300.318
300.331
300.344
300.356
300.369
300.381
300.394
300.406
300.419
300.431
300.443
300.455
300.466
300.478
300.49
300.501
300.512
300.523
300
300
300
300
300
300
300
300
300.001
300.001
300.001
300.001
300.001
300.002
300.002
300.003
300.003
300.004
300.005
300.005
300.006
300.008
300.009
300.01
300.012
300.014
300.016
300.018
300.021
300.023
300.026
300.03
300.033
300.037
300.041
300.046
300.05
300.055
300.061
300.067
300.073
300.079
300.086
300.093
300.1
300.107
300.115
300.124
300.132
300.141
300.15
300.159
300.169
300.178
300.188
300.198
300.209
300.219
300.23
300.24
300.251
300.262
300.273
300.284
300.295
300.306
300.317
300.328
300.338
300.349
300.36
300.371
300.381
300.392
300.402
300.412
300.422
300.432
300.442
300.451
300.461
300
300
300
300
300
300
300
300
300
300.001
300.001
300.001
300.001
300.002
300.002
300.002
300.003
300.004
300.004
300.005
300.006
300.007
300.008
300.01
300.011
300.013
300.015
300.017
300.019
300.021
300.024
300.027
300.03
300.034
300.037
300.041
300.046
300.05
300.055
300.06
300.065
300.071
300.077
300.083
300.09
300.096
300.103
300.111
300.118
300.126
300.134
300.142
300.15
300.159
300.167
300.176
300.185
300.194
300.203
300.212
300.222
300.231
300.24
300.25
300.259
300.269
300.278
300.287
300.297
300.306
300.315
300.324
300.333
300.342
300.351
300.359
300.368
300.376
300.385
300.393
300.401
300
300
300
300
300
300
300
300
300
300.001
300.001
300.001
300.001
300.001
300.002
300.002
300.003
300.003
300.004
300.005
300.005
300.006
300.007
300.009
300.01
300.011
300.013
300.015
300.017
300.019
300.022
300.024
300.027
300.03
300.034
300.037
300.041
300.045
300.049
300.054
300.058
300.063
300.068
300.074
300.079
300.085
300.091
300.098
300.104
300.111
300.118
300.125
300.132
300.139
300.147
300.154
300.162
300.169
300.177
300.185
300.193
300.201
300.209
300.217
300.225
300.233
300.241
300.249
300.256
300.264
300.272
300.28
300.287
300.295
300.302
300.31
300.317
300.324
300.331
300.338
300.345
300
300
300
300
300
300
300
300
300
300
300.001
300.001
300.001
300.001
300.002
300.002
300.002
300.003
300.003
300.004
300.005
300.006
300.007
300.008
300.009
300.01
300.012
300.013
300.015
300.017
300.019
300.021
300.024
300.027
300.03
300.033
300.036
300.039
300.043
300.047
300.051
300.055
300.06
300.064
300.069
300.074
300.079
300.085
300.09
300.096
300.102
300.108
300.114
300.12
300.126
300.133
300.139
300.146
300.152
300.159
300.165
300.172
300.179
300.185
300.192
300.199
300.205
300.212
300.218
300.225
300.231
300.238
300.244
300.25
300.256
300.263
300.269
300.274
300.28
300.286
300.292
300
300
300
300
300
300
300
300
300
300
300.001
300.001
300.001
300.001
300.001
300.002
300.002
300.002
300.003
300.004
300.004
300.005
300.006
300.007
300.008
300.009
300.01
300.012
300.013
300.015
300.017
300.019
300.021
300.023
300.026
300.028
300.031
300.034
300.037
300.04
300.044
300.047
300.051
300.055
300.059
300.063
300.068
300.072
300.077
300.082
300.087
300.092
300.097
300.102
300.107
300.112
300.117
300.123
300.128
300.134
300.139
300.145
300.15
300.156
300.161
300.167
300.172
300.177
300.183
300.188
300.193
300.199
300.204
300.209
300.214
300.219
300.224
300.229
300.234
300.238
300.243
300
300
300
300
300
300
300
300
300
300
300
300.001
300.001
300.001
300.001
300.001
300.002
300.002
300.003
300.003
300.004
300.004
300.005
300.006
300.007
300.008
300.009
300.01
300.011
300.013
300.014
300.016
300.018
300.02
300.022
300.024
300.026
300.029
300.031
300.034
300.037
300.04
300.043
300.046
300.05
300.053
300.057
300.06
300.064
300.068
300.072
300.076
300.08
300.084
300.089
300.093
300.097
300.102
300.106
300.11
300.115
300.119
300.124
300.128
300.133
300.137
300.141
300.146
300.15
300.154
300.159
300.163
300.167
300.171
300.175
300.179
300.183
300.187
300.191
300.195
300.199
300
300
300
300
300
300
300
300
300
300
300
300
300.001
300.001
300.001
300.001
300.001
300.002
300.002
300.002
300.003
300.003
300.004
300.005
300.005
300.006
300.007
300.008
300.009
300.01
300.012
300.013
300.015
300.016
300.018
300.02
300.022
300.024
300.026
300.028
300.03
300.033
300.035
300.038
300.041
300.044
300.046
300.049
300.052
300.056
300.059
300.062
300.065
300.069
300.072
300.075
300.079
300.082
300.086
300.089
300.093
300.096
300.1
300.103
300.107
300.11
300.114
300.117
300.121
300.124
300.127
300.131
300.134
300.137
300.141
300.144
300.147
300.15
300.153
300.156
300.159
300
300
300
300
300
300
300
300
300
300
300
300
300
300.001
300.001
300.001
300.001
300.001
300.002
300.002
300.002
300.003
300.003
300.004
300.004
300.005
300.006
300.007
300.008
300.008
300.01
300.011
300.012
300.013
300.014
300.016
300.017
300.019
300.021
300.023
300.024
300.026
300.028
300.03
300.033
300.035
300.037
300.039
300.042
300.044
300.047
300.049
300.052
300.054
300.057
300.06
300.062
300.065
300.068
300.07
300.073
300.076
300.079
300.081
300.084
300.087
300.089
300.092
300.095
300.097
300.1
300.102
300.105
300.108
300.11
300.112
300.115
300.117
300.12
300.122
300.124
300
300
300
300
300
300
300
300
300
300
300
300
300
300
300.001
300.001
300.001
300.001
300.001
300.002
300.002
300.002
300.003
300.003
300.003
300.004
300.005
300.005
300.006
300.007
300.007
300.008
300.009
300.01
300.011
300.012
300.014
300.015
300.016
300.018
300.019
300.02
300.022
300.024
300.025
300.027
300.029
300.03
300.032
300.034
300.036
300.038
300.04
300.042
300.044
300.046
300.048
300.05
300.052
300.054
300.056
300.058
300.06
300.062
300.064
300.066
300.068
300.07
300.072
300.074
300.076
300.078
300.08
300.082
300.084
300.086
300.087
300.089
300.091
300.093
300.095
300
300
300
300
300
300
300
300
300
300
300
300
300
300
300
300
300.001
300.001
300.001
300.001
300.001
300.002
300.002
300.002
300.003
300.003
300.003
300.004
300.004
300.005
300.006
300.006
300.007
300.008
300.009
300.009
300.01
300.011
300.012
300.013
300.014
300.015
300.017
300.018
300.019
300.02
300.021
300.023
300.024
300.026
300.027
300.028
300.03
300.031
300.033
300.034
300.036
300.037
300.039
300.04
300.042
300.043
300.045
300.046
300.048
300.049
300.051
300.052
300.054
300.055
300.056
300.058
300.059
300.061
300.062
300.063
300.065
300.066
300.067
300.069
300.07
300
300
300
300
300
300
300
300
300
300
300
300
300
300
300
300
300
300
300.001
300.001
300.001
300.001
300.001
300.002
300.002
300.002
300.002
300.003
300.003
300.004
300.004
300.004
300.005
300.006
300.006
300.007
300.007
300.008
300.009
300.01
300.01
300.011
300.012
300.013
300.014
300.015
300.015
300.016
300.017
300.018
300.019
300.02
300.021
300.022
300.023
300.025
300.026
300.027
300.028
300.029
300.03
300.031
300.032
300.033
300.034
300.035
300.036
300.037
300.038
300.039
300.04
300.041
300.042
300.043
300.044
300.045
300.046
300.047
300.048
300.049
300.05
300
300
300
300
300
300
300
300
300
300
300
300
300
300
300
300
300
300
300
300
300.001
300.001
300.001
300.001
300.001
300.001
300.002
300.002
300.002
300.002
300.003
300.003
300.003
300.004
300.004
300.005
300.005
300.006
300.006
300.007
300.007
300.008
300.008
300.009
300.009
300.01
300.011
300.011
300.012
300.013
300.013
300.014
300.015
300.015
300.016
300.017
300.018
300.018
300.019
300.02
300.021
300.021
300.022
300.023
300.023
300.024
300.025
300.026
300.026
300.027
300.028
300.028
300.029
300.03
300.03
300.031
300.032
300.032
300.033
300.034
300.034
300
300
300
300
300
300
300
300
300
300
300
300
300
300
300
300
300
300
300
300
300
300
300
300
300.001
300.001
300.001
300.001
300.001
300.001
300.002
300.002
300.002
300.002
300.003
300.003
300.003
300.004
300.004
300.004
300.005
300.005
300.005
300.006
300.006
300.007
300.007
300.007
300.008
300.008
300.009
300.009
300.01
300.01
300.011
300.011
300.012
300.012
300.012
300.013
300.013
300.014
300.014
300.015
300.015
300.016
300.016
300.017
300.017
300.018
300.018
300.019
300.019
300.019
300.02
300.02
300.021
300.021
300.022
300.022
300.022
300
300
300
300
300
300
300
300
300
300
300
300
300
300
300
300
300
300
300
300
300
300
300
300
300
300
300
300
300.001
300.001
300.001
300.001
300.001
300.001
300.001
300.002
300.002
300.002
300.002
300.002
300.003
300.003
300.003
300.003
300.004
300.004
300.004
300.004
300.005
300.005
300.005
300.006
300.006
300.006
300.006
300.007
300.007
300.007
300.008
300.008
300.008
300.009
300.009
300.009
300.009
300.01
300.01
300.01
300.011
300.011
300.011
300.012
300.012
300.012
300.012
300.013
300.013
300.013
300.013
300.014
300.014
300
300
300
300
300
300
300
300
300
300
300
300
300
300
300
300
300
300
300
300
300
300
300
300
300
300
300
300
300
300
300
300
300
300.001
300.001
300.001
300.001
300.001
300.001
300.001
300.001
300.002
300.002
300.002
300.002
300.002
300.002
300.002
300.003
300.003
300.003
300.003
300.003
300.003
300.004
300.004
300.004
300.004
300.004
300.005
300.005
300.005
300.005
300.005
300.005
300.006
300.006
300.006
300.006
300.006
300.006
300.007
300.007
300.007
300.007
300.007
300.007
300.008
300.008
300.008
300.008
300
300
300
300
300
300
300
300
300
300
300
300
300
300
300
300
300
300
300
300
300
300
300
300
300
300
300
300
300
300
300
300
300
300
300
300
300
300
300
300
300.001
300.001
300.001
300.001
300.001
300.001
300.001
300.001
300.001
300.001
300.001
300.002
300.002
300.002
300.002
300.002
300.002
300.002
300.002
300.002
300.002
300.003
300.003
300.003
300.003
300.003
300.003
300.003
300.003
300.003
300.003
300.004
300.004
300.004
300.004
300.004
300.004
300.004
300.004
300.004
300.004
300
300
300
300
300
300
300
300
300
300
300
300
300
300
300
300
300
300
300
300
300
300
300
300
300
300
300
300
300
300
300
300
300
300
300
300
300
300
300
300
300
300
300
300
300
300
300
300
300
300
300.001
300.001
300.001
300.001
300.001
300.001
300.001
300.001
300.001
300.001
300.001
300.001
300.001
300.001
300.001
300.001
300.001
300.001
300.002
300.002
300.002
300.002
300.002
300.002
300.002
300.002
300.002
300.002
300.002
300.002
300.002
300
300
300
300
300
300
300
300
300
300
300
300
300
300
300
300
300
300
300
300
300
300
300
300
300
300
300
300
300
300
300
300
300
300
300
300
300
300
300
300
300
300
300
300
300
300
300
300
300
300
300
300
300
300
300
300
300
300
300
300
300
300
300.001
300.001
300.001
300.001
300.001
300.001
300.001
300.001
300.001
300.001
300.001
300.001
300.001
300.001
300.001
300.001
300.001
300.001
300.001
302.096
302.214
302.284
302.349
302.404
302.448
302.477
302.51
302.543
302.573
302.597
302.624
302.651
302.677
302.702
302.727
302.75
302.769
302.79
302.811
302.831
302.851
302.871
302.89
302.909
302.927
302.944
302.962
302.979
302.995
303.011
303.026
303.041
303.056
303.07
303.084
303.097
303.11
303.123
303.136
303.148
303.159
303.171
303.184
303.195
303.206
303.217
303.227
303.238
303.248
303.257
303.266
303.275
303.284
303.293
303.302
303.31
303.319
303.327
303.334
303.34
303.346
303.353
303.359
303.366
303.372
303.378
303.383
303.389
303.394
303.399
303.403
303.408
303.412
303.416
303.42
303.423
303.427
303.43
303.433
303.437
303.44
303.442
303.444
303.446
303.448
303.45
303.452
303.454
303.456
303.457
303.458
303.46
303.461
303.462
303.463
303.464
303.464
303.465
303.465
303.466
303.466
303.466
303.467
303.467
303.467
303.467
303.467
303.467
303.467
303.467
303.467
303.467
303.466
303.466
303.466
303.466
303.466
303.466
303.466
303.465
303.465
303.465
303.464
303.464
303.463
303.462
303.462
303.46
303.459
303.457
303.455
303.453
303.45
303.447
303.443
303.439
303.435
303.43
303.424
303.417
303.41
303.401
303.392
303.381
303.369
303.356
303.341
303.323
303.302
303.276
303.248
303.219
303.185
303.145
303.097
303.043
302.946
302.852
302.726
302.55
301.997
302.101
302.181
302.247
302.304
302.352
302.391
302.427
302.461
302.493
302.522
302.55
302.578
302.605
302.631
302.655
302.679
302.701
302.722
302.744
302.764
302.785
302.805
302.824
302.843
302.862
302.88
302.897
302.914
302.931
302.947
302.962
302.978
302.992
303.007
303.021
303.035
303.048
303.061
303.073
303.086
303.098
303.11
303.122
303.134
303.145
303.155
303.166
303.176
303.186
303.196
303.205
303.214
303.223
303.232
303.241
303.249
303.257
303.265
303.272
303.279
303.286
303.292
303.299
303.305
303.311
303.317
303.322
303.328
303.333
303.338
303.342
303.347
303.351
303.355
303.359
303.362
303.366
303.369
303.372
303.375
303.378
303.381
303.383
303.385
303.387
303.389
303.391
303.393
303.394
303.396
303.397
303.398
303.399
303.4
303.401
303.402
303.403
303.404
303.404
303.405
303.405
303.405
303.405
303.406
303.406
303.406
303.406
303.406
303.406
303.406
303.405
303.405
303.405
303.405
303.405
303.405
303.405
303.405
303.404
303.404
303.404
303.404
303.403
303.403
303.402
303.401
303.4
303.399
303.398
303.396
303.394
303.392
303.389
303.386
303.383
303.379
303.374
303.369
303.363
303.356
303.349
303.341
303.331
303.321
303.309
303.296
303.28
303.263
303.242
303.216
303.188
303.158
303.124
303.083
303.034
302.976
302.883
302.784
302.652
302.46
301.917
302.007
302.084
302.15
302.208
302.258
302.301
302.341
302.377
302.411
302.442
302.472
302.501
302.529
302.555
302.581
302.605
302.628
302.651
302.672
302.694
302.715
302.735
302.755
302.774
302.793
302.811
302.829
302.846
302.863
302.879
302.895
302.911
302.926
302.94
302.954
302.968
302.982
302.995
303.008
303.02
303.032
303.044
303.056
303.068
303.079
303.09
303.101
303.111
303.121
303.131
303.14
303.149
303.158
303.167
303.176
303.184
303.192
303.2
303.207
303.214
303.221
303.228
303.234
303.24
303.246
303.252
303.258
303.263
303.268
303.273
303.278
303.282
303.286
303.29
303.294
303.298
303.301
303.304
303.307
303.311
303.313
303.316
303.318
303.32
303.322
303.324
303.326
303.328
303.33
303.331
303.332
303.333
303.335
303.336
303.337
303.337
303.338
303.339
303.339
303.34
303.34
303.34
303.341
303.341
303.341
303.341
303.341
303.341
303.341
303.341
303.341
303.341
303.34
303.34
303.34
303.34
303.34
303.34
303.34
303.339
303.339
303.339
303.338
303.338
303.337
303.336
303.335
303.334
303.333
303.331
303.329
303.327
303.324
303.321
303.318
303.314
303.309
303.304
303.299
303.292
303.285
303.277
303.268
303.257
303.245
303.232
303.217
303.199
303.178
303.153
303.125
303.095
303.059
303.018
302.968
302.907
302.816
302.713
302.576
302.374
301.844
301.922
301.993
302.058
302.115
302.166
302.211
302.253
302.291
302.326
302.359
302.391
302.421
302.449
302.477
302.503
302.528
302.552
302.575
302.598
302.619
302.641
302.661
302.682
302.701
302.72
302.739
302.757
302.774
302.791
302.808
302.824
302.84
302.855
302.87
302.884
302.898
302.912
302.925
302.938
302.951
302.963
302.975
302.987
302.999
303.01
303.021
303.032
303.042
303.052
303.062
303.072
303.081
303.09
303.099
303.107
303.116
303.124
303.132
303.139
303.146
303.153
303.159
303.166
303.172
303.178
303.184
303.189
303.195
303.2
303.204
303.209
303.214
303.218
303.222
303.226
303.229
303.233
303.236
303.239
303.242
303.245
303.247
303.25
303.252
303.254
303.256
303.258
303.259
303.261
303.262
303.264
303.265
303.266
303.267
303.268
303.269
303.269
303.27
303.271
303.271
303.271
303.272
303.272
303.272
303.272
303.272
303.272
303.272
303.272
303.272
303.272
303.272
303.272
303.272
303.272
303.272
303.271
303.271
303.271
303.271
303.27
303.27
303.27
303.269
303.269
303.268
303.267
303.266
303.264
303.263
303.261
303.259
303.256
303.253
303.25
303.246
303.241
303.236
303.231
303.224
303.217
303.209
303.2
303.19
303.178
303.164
303.149
303.131