/*--------------------------------*- C++ -*----------------------------------*\
| =========                 |                                                 |
| \\      /  F ield         | OpenFOAM: The Open Source CFD Toolbox           |
|  \\    /   O peration     | Version:  2106                                  |
|   \\  /    A nd           | Website:  www.openfoam.com                      |
|    \\/     M anipulation  |                                                 |
\*---------------------------------------------------------------------------*/
FoamFile
{
    version     2.0;
    format      ascii;
    arch        "LSB;label=32;scalar=64";
    class       volVectorField;
    location    "0.59";
    object      U;
}
// * * * * * * * * * * * * * * * * * * * * * * * * * * * * * * * * * * * * * //

dimensions      [0 1 -1 0 0 0 0];

internalField   nonuniform List<vector> 
12013
(
(0.1 6.21411e-07 0)
(0.0999865 3.04474e-06 0)
(0.0999376 7.10039e-06 0)
(0.0998424 1.16727e-05 0)
(0.0997048 1.54186e-05 0)
(0.0995406 1.75403e-05 0)
(0.0993679 1.8047e-05 0)
(0.0992006 1.74942e-05 0)
(0.0990449 1.65503e-05 0)
(0.0989011 1.57043e-05 0)
(0.0987665 1.5181e-05 0)
(0.0986376 1.50035e-05 0)
(0.0985115 1.50922e-05 0)
(0.0983865 1.53441e-05 0)
(0.0982615 1.56747e-05 0)
(0.0981364 1.6028e-05 0)
(0.0980113 1.63745e-05 0)
(0.0978862 1.67016e-05 0)
(0.0977614 1.70053e-05 0)
(0.0976372 1.72868e-05 0)
(0.0975138 1.75473e-05 0)
(0.0973914 1.77876e-05 0)
(0.09727 1.80076e-05 0)
(0.09715 1.82061e-05 0)
(0.0970315 1.83813e-05 0)
(0.0969147 1.85304e-05 0)
(0.0967996 1.86497e-05 0)
(0.0966867 1.87375e-05 0)
(0.0965759 1.87902e-05 0)
(0.0964677 1.88056e-05 0)
(0.096362 1.87824e-05 0)
(0.0962592 1.87199e-05 0)
(0.0961595 1.8619e-05 0)
(0.0960629 1.84811e-05 0)
(0.0959696 1.83091e-05 0)
(0.0958798 1.81082e-05 0)
(0.0957934 1.78839e-05 0)
(0.0957106 1.76437e-05 0)
(0.0956313 1.73965e-05 0)
(0.0955555 1.7153e-05 0)
(0.0954829 1.69248e-05 0)
(0.0954136 1.67252e-05 0)
(0.0953471 1.65693e-05 0)
(0.0952832 1.6474e-05 0)
(0.0952216 1.64575e-05 0)
(0.0951618 1.654e-05 0)
(0.0951034 1.67443e-05 0)
(0.0950458 1.70952e-05 0)
(0.0949883 1.76211e-05 0)
(0.0949303 1.83532e-05 0)
(0.0948708 1.93278e-05 0)
(0.0948092 2.05861e-05 0)
(0.0947442 2.21751e-05 0)
(0.0946748 2.41506e-05 0)
(0.0945997 2.65777e-05 0)
(0.0945175 2.95335e-05 0)
(0.0944264 3.31104e-05 0)
(0.0943248 3.74206e-05 0)
(0.0942103 4.25996e-05 0)
(0.0940804 4.88142e-05 0)
(0.0939324 5.62705e-05 0)
(0.0937626 6.52261e-05 0)
(0.0935671 7.60064e-05 0)
(0.093341 8.90253e-05 0)
(0.0930782 0.000104817 0)
(0.0927716 0.00012408 0)
(0.0924121 0.000147736 0)
(0.0919884 0.000177028 0)
(0.0914863 0.000213652 0)
(0.090887 0.000259972 0)
(0.0901663 0.000319342 0)
(0.0892916 0.000396627 0)
(0.0882184 0.000499035 0)
(0.0868849 0.000637498 0)
(0.0852031 0.000828988 0)
(0.0830461 0.00110048 0)
(0.0802254 0.00149585 0)
(0.0764431 0.00209021 0)
(0.0712353 0.00303491 0)
(0.0640541 0.00475277 0)
(0.0559704 0.00914715 0)
(0.100001 1.86426e-06 0)
(0.0999874 9.2779e-06 0)
(0.0999395 2.17026e-05 0)
(0.0998455 3.57295e-05 0)
(0.0997091 4.72368e-05 0)
(0.0995458 5.3772e-05 0)
(0.0993739 5.53552e-05 0)
(0.0992069 5.36819e-05 0)
(0.0990513 5.08026e-05 0)
(0.0989075 4.82145e-05 0)
(0.0987728 4.66107e-05 0)
(0.0986438 4.60639e-05 0)
(0.0985177 4.63319e-05 0)
(0.0983926 4.71e-05 0)
(0.0982677 4.81089e-05 0)
(0.0981427 4.91892e-05 0)
(0.0980177 5.02496e-05 0)
(0.0978927 5.12509e-05 0)
(0.0977681 5.21822e-05 0)
(0.0976441 5.30455e-05 0)
(0.0975208 5.38448e-05 0)
(0.0973985 5.45829e-05 0)
(0.0972774 5.52592e-05 0)
(0.0971575 5.587e-05 0)
(0.0970391 5.64091e-05 0)
(0.0969223 5.68691e-05 0)
(0.0968074 5.724e-05 0)
(0.0966944 5.75134e-05 0)
(0.0965837 5.76798e-05 0)
(0.0964754 5.77329e-05 0)
(0.0963697 5.76688e-05 0)
(0.0962668 5.74856e-05 0)
(0.0961668 5.71845e-05 0)
(0.09607 5.67708e-05 0)
(0.0959764 5.62542e-05 0)
(0.0958862 5.56495e-05 0)
(0.0957995 5.49747e-05 0)
(0.0957162 5.42523e-05 0)
(0.0956363 5.35094e-05 0)
(0.0955598 5.27784e-05 0)
(0.0954865 5.20956e-05 0)
(0.0954163 5.15017e-05 0)
(0.0953489 5.10428e-05 0)
(0.095284 5.07709e-05 0)
(0.0952214 5.07417e-05 0)
(0.0951604 5.10172e-05 0)
(0.0951008 5.16659e-05 0)
(0.0950418 5.27654e-05 0)
(0.094983 5.44019e-05 0)
(0.0949235 5.66718e-05 0)
(0.0948625 5.96847e-05 0)
(0.0947993 6.3566e-05 0)
(0.0947327 6.84612e-05 0)
(0.0946617 7.45388e-05 0)
(0.094585 8.19972e-05 0)
(0.0945011 9.10725e-05 0)
(0.0944085 0.000102046 0)
(0.0943053 0.000115257 0)
(0.0941895 0.000131116 0)
(0.0940585 0.00015013 0)
(0.0939096 0.000172922 0)
(0.0937395 0.000200269 0)
(0.0935441 0.000233149 0)
(0.0933189 0.000272808 0)
(0.0930582 0.000320843 0)
(0.0927552 0.000379333 0)
(0.0924015 0.000451018 0)
(0.0919867 0.000539561 0)
(0.0914978 0.000649935 0)
(0.0909183 0.000789005 0)
(0.0902268 0.000966414 0)
(0.0893958 0.00119596 0)
(0.0883889 0.00149772 0)
(0.0871579 0.0019015 0)
(0.0856383 0.00245211 0)
(0.0837449 0.00321769 0)
(0.0813667 0.00430156 0)
(0.0783584 0.00585829 0)
(0.0745583 0.00811436 0)
(0.0700208 0.0113317 0)
(0.0660532 0.0153677 0)
(0.100001 3.0599e-06 0)
(0.0999886 1.5706e-05 0)
(0.0999426 3.69628e-05 0)
(0.0998512 6.10375e-05 0)
(0.0997177 8.08634e-05 0)
(0.099557 9.22076e-05 0)
(0.0993869 9.50639e-05 0)
(0.0992209 9.23073e-05 0)
(0.0990655 8.74411e-05 0)
(0.0989216 8.30345e-05 0)
(0.0987866 8.02872e-05 0)
(0.0986574 7.93349e-05 0)
(0.0985311 7.9773e-05 0)
(0.098406 8.10695e-05 0)
(0.0982812 8.27823e-05 0)
(0.0981564 8.46221e-05 0)
(0.0980317 8.6432e-05 0)
(0.0979071 8.81448e-05 0)
(0.0977829 8.97415e-05 0)
(0.0976592 9.12238e-05 0)
(0.0975364 9.25987e-05 0)
(0.0974145 9.38707e-05 0)
(0.0972937 9.50383e-05 0)
(0.0971742 9.60957e-05 0)
(0.0970562 9.70321e-05 0)
(0.0969397 9.78344e-05 0)
(0.096825 9.84869e-05 0)
(0.0967123 9.89738e-05 0)
(0.0966017 9.92806e-05 0)
(0.0964935 9.93966e-05 0)
(0.0963878 9.9314e-05 0)
(0.0962847 9.90305e-05 0)
(0.0961846 9.85484e-05 0)
(0.0960875 9.78772e-05 0)
(0.0959935 9.70342e-05 0)
(0.0959028 9.60434e-05 0)
(0.0958153 9.49367e-05 0)
(0.0957312 9.37524e-05 0)
(0.0956503 9.25384e-05 0)
(0.0955727 9.13484e-05 0)
(0.0954981 9.02455e-05 0)
(0.0954265 8.92996e-05 0)
(0.0953575 8.85903e-05 0)
(0.0952908 8.82052e-05 0)
(0.0952262 8.824e-05 0)
(0.0951632 8.88018e-05 0)
(0.0951013 9.00077e-05 0)
(0.0950399 9.19903e-05 0)
(0.0949785 9.48963e-05 0)
(0.0949163 9.88906e-05 0)
(0.0948526 0.00010416 0)
(0.0947864 0.000110918 0)
(0.0947168 0.000119412 0)
(0.0946427 0.000129928 0)
(0.0945629 0.000142803 0)
(0.094476 0.000158434 0)
(0.0943804 0.000177298 0)
(0.0942744 0.000199965 0)
(0.0941559 0.000227125 0)
(0.0940227 0.000259624 0)
(0.0938721 0.000298502 0)
(0.0937009 0.00034505 0)
(0.0935056 0.000400884 0)
(0.0932818 0.000468046 0)
(0.0930245 0.000549146 0)
(0.0927276 0.000647549 0)
(0.0923837 0.000767646 0)
(0.0919841 0.000915242 0)
(0.0915178 0.00109811 0)
(0.0909716 0.00132678 0)
(0.0903293 0.00161576 0)
(0.0895708 0.00198522 0)
(0.088672 0.00246355 0)
(0.0876037 0.003091 0)
(0.0863331 0.00392461 0)
(0.0848264 0.00504426 0)
(0.0830575 0.00655738 0)
(0.0810246 0.00859625 0)
(0.0787935 0.0112926 0)
(0.076629 0.0146551 0)
(0.0752376 0.0180783 0)
(0.100001 4.16158e-06 0)
(0.09999 2.21831e-05 0)
(0.0999469 5.26205e-05 0)
(0.0998598 8.72658e-05 0)
(0.0997311 0.000115985 0)
(0.0995747 0.000132632 0)
(0.0994076 0.000137097 0)
(0.0992433 0.000133428 0)
(0.0990885 0.000126619 0)
(0.0989444 0.000120366 0)
(0.098809 0.000116422 0)
(0.0986793 0.000115015 0)
(0.0985527 0.00011559 0)
(0.0984276 0.000117401 0)
(0.0983031 0.000119821 0)
(0.0981787 0.000122436 0)
(0.0980545 0.000125019 0)
(0.0979305 0.000127473 0)
(0.0978069 0.000129767 0)
(0.097684 0.000131904 0)
(0.0975619 0.00013389 0)
(0.0974407 0.000135733 0)
(0.0973207 0.000137429 0)
(0.0972019 0.000138971 0)
(0.0970845 0.000140343 0)
(0.0969686 0.000141526 0)
(0.0968545 0.000142498 0)
(0.0967422 0.000143238 0)
(0.0966321 0.000143724 0)
(0.0965241 0.000143942 0)
(0.0964186 0.000143881 0)
(0.0963157 0.000143538 0)
(0.0962155 0.000142917 0)
(0.0961182 0.000142033 0)
(0.0960238 0.00014091 0)
(0.0959325 0.000139584 0)
(0.0958443 0.0001381 0)
(0.0957592 0.000136514 0)
(0.0956772 0.000134894 0)
(0.0955981 0.000133319 0)
(0.0955219 0.000131879 0)
(0.0954484 0.000130675 0)
(0.0953773 0.00012982 0)
(0.0953084 0.000129442 0)
(0.0952412 0.000129677 0)
(0.0951754 0.000130678 0)
(0.0951105 0.000132616 0)
(0.0950459 0.000135678 0)
(0.0949811 0.000140075 0)
(0.0949153 0.000146043 0)
(0.0948478 0.000153847 0)
(0.0947777 0.000163794 0)
(0.0947042 0.000176232 0)
(0.094626 0.000191569 0)
(0.0945422 0.00021028 0)
(0.0944512 0.000232926 0)
(0.0943518 0.000260174 0)
(0.0942422 0.000292823 0)
(0.0941206 0.000331837 0)
(0.0939848 0.000378388 0)
(0.0938325 0.00043391 0)
(0.0936607 0.000500172 0)
(0.0934664 0.000579375 0)
(0.0932457 0.000674276 0)
(0.0929945 0.000788359 0)
(0.0927076 0.000926069 0)
(0.0923791 0.00109313 0)
(0.0920024 0.00129696 0)
(0.0915694 0.00154732 0)
(0.0910712 0.00185711 0)
(0.0904975 0.00224354 0)
(0.0898373 0.00272968 0)
(0.0890796 0.0033465 0)
(0.0882148 0.00413534 0)
(0.0872387 0.00515032 0)
(0.0861583 0.00645928 0)
(0.0850035 0.00813944 0)
(0.0838436 0.0102593 0)
(0.0828113 0.012831 0)
(0.0821289 0.0156953 0)
(0.0820723 0.0182675 0)
(0.100001 5.12426e-06 0)
(0.0999918 2.85216e-05 0)
(0.0999525 6.833e-05 0)
(0.0998712 0.000113965 0)
(0.0997493 0.000152157 0)
(0.0995989 0.000174715 0)
(0.0994363 0.000181298 0)
(0.0992745 0.000177056 0)
(0.0991206 0.000168473 0)
(0.0989763 0.000160412 0)
(0.0988404 0.000155234 0)
(0.0987102 0.000153307 0)
(0.0985833 0.000153957 0)
(0.0984583 0.000156235 0)
(0.0983341 0.000159335 0)
(0.0982103 0.000162715 0)
(0.0980868 0.000166079 0)
(0.0979638 0.00016929 0)
(0.0978413 0.000172305 0)
(0.0977194 0.000175124 0)
(0.0975984 0.000177754 0)
(0.0974783 0.000180201 0)
(0.0973594 0.000182464 0)
(0.0972417 0.000184528 0)
(0.0971253 0.000186375 0)
(0.0970104 0.00018798 0)
(0.0968972 0.000189316 0)
(0.0967859 0.000190353 0)
(0.0966764 0.000191068 0)
(0.0965692 0.000191439 0)
(0.0964641 0.000191456 0)
(0.0963616 0.000191113 0)
(0.0962615 0.000190418 0)
(0.0961642 0.000189391 0)
(0.0960696 0.000188064 0)
(0.0959779 0.000186485 0)
(0.095889 0.000184714 0)
(0.0958029 0.000182825 0)
(0.0957197 0.000180909 0)
(0.0956392 0.000179069 0)
(0.0955612 0.000177423 0)
(0.0954856 0.000176106 0)
(0.0954122 0.000175267 0)
(0.0953406 0.00017507 0)
(0.0952705 0.000175699 0)
(0.0952015 0.000177353 0)
(0.0951331 0.000180255 0)
(0.0950648 0.000184653 0)
(0.094996 0.00019082 0)
(0.0949261 0.000199064 0)
(0.0948543 0.000209733 0)
(0.0947797 0.000223222 0)
(0.0947016 0.000239985 0)
(0.094619 0.000260546 0)
(0.0945306 0.000285516 0)
(0.0944354 0.000315615 0)
(0.0943319 0.000351692 0)
(0.0942187 0.00039476 0)
(0.0940941 0.000446034 0)
(0.0939562 0.000506982 0)
(0.0938029 0.000579386 0)
(0.0936319 0.000665426 0)
(0.0934405 0.000767787 0)
(0.0932257 0.000889793 0)
(0.0929842 0.00103559 0)
(0.0927122 0.00121038 0)
(0.0924057 0.00142074 0)
(0.0920602 0.00167503 0)
(0.0916711 0.0019839 0)
(0.0912339 0.00236104 0)
(0.0907446 0.002824 0)
(0.0902006 0.00339522 0)
(0.0896024 0.00410314 0)
(0.0889558 0.00498298 0)
(0.088276 0.00607657 0)
(0.087593 0.00742938 0)
(0.0869592 0.0090816 0)
(0.0864575 0.0110474 0)
(0.0862036 0.0132743 0)
(0.086331 0.0155752 0)
(0.0869178 0.0175421 0)
(0.100001 5.88864e-06 0)
(0.0999939 3.45037e-05 0)
(0.0999593 8.36846e-05 0)
(0.0998853 0.000140594 0)
(0.0997719 0.000188831 0)
(0.0996295 0.000218029 0)
(0.0994728 0.000227434 0)
(0.0993143 0.000223157 0)
(0.0991618 0.000213116 0)
(0.0990175 0.000203368 0)
(0.098881 0.000196943 0)
(0.0987503 0.000194417 0)
(0.0986232 0.000195045 0)
(0.0984983 0.000197706 0)
(0.0983746 0.000201423 0)
(0.0982516 0.000205532 0)
(0.0981293 0.000209658 0)
(0.0980075 0.000213625 0)
(0.0978863 0.000217373 0)
(0.097766 0.000220893 0)
(0.0976464 0.000224192 0)
(0.0975279 0.000227275 0)
(0.0974105 0.000230135 0)
(0.0972942 0.000232759 0)
(0.0971794 0.000235121 0)
(0.0970659 0.000237192 0)
(0.0969541 0.000238939 0)
(0.096844 0.000240327 0)
(0.0967357 0.000241327 0)
(0.0966295 0.000241916 0)
(0.0965254 0.00024208 0)
(0.0964235 0.000241815 0)
(0.096324 0.000241132 0)
(0.0962269 0.000240057 0)
(0.0961324 0.000238632 0)
(0.0960404 0.000236916 0)
(0.095951 0.000234985 0)
(0.0958642 0.000232934 0)
(0.0957798 0.000230874 0)
(0.0956978 0.000228935 0)
(0.0956181 0.000227265 0)
(0.0955404 0.000226031 0)
(0.0954646 0.00022542 0)
(0.0953902 0.000225636 0)
(0.0953171 0.000226906 0)
(0.0952447 0.00022948 0)
(0.0951726 0.000233633 0)
(0.0951004 0.00023967 0)
(0.0950274 0.000247931 0)
(0.0949531 0.000258795 0)
(0.0948767 0.000272687 0)
(0.0947976 0.000290093 0)
(0.0947148 0.000311563 0)
(0.0946276 0.000337735 0)
(0.0945348 0.000369348 0)
(0.0944354 0.000407264 0)
(0.0943282 0.000452497 0)
(0.094212 0.000506247 0)
(0.0940853 0.000569944 0)
(0.0939465 0.000645297 0)
(0.0937939 0.000734364 0)
(0.0936257 0.000839634 0)
(0.09344 0.000964131 0)
(0.0932345 0.00111154 0)
(0.093007 0.00128639 0)
(0.0927553 0.00149425 0)
(0.0924772 0.00174196 0)
(0.0921706 0.00203801 0)
(0.0918342 0.00239287 0)
(0.0914676 0.00281947 0)
(0.0910722 0.00333362 0)
(0.090652 0.00395443 0)
(0.0902156 0.00470445 0)
(0.089778 0.00560921 0)
(0.0893639 0.00669537 0)
(0.0890103 0.00798638 0)
(0.0887701 0.00949356 0)
(0.0887124 0.0112003 0)
(0.0889154 0.0130375 0)
(0.0894449 0.0148535 0)
(0.0903033 0.0163958 0)
(0.100001 6.39138e-06 0)
(0.0999961 3.99004e-05 0)
(0.0999669 9.82475e-05 0)
(0.0999015 0.000166558 0)
(0.0997982 0.000225385 0)
(0.0996653 0.000262065 0)
(0.0995158 0.000275193 0)
(0.0993618 0.000271627 0)
(0.0992111 0.000260609 0)
(0.0990673 0.000249393 0)
(0.0989304 0.000241748 0)
(0.0987992 0.000238537 0)
(0.0986719 0.000239016 0)
(0.0985473 0.000241936 0)
(0.0984244 0.000246171 0)
(0.0983026 0.00025094 0)
(0.0981816 0.000255785 0)
(0.0980614 0.000260488 0)
(0.097942 0.000264965 0)
(0.0978235 0.000269194 0)
(0.0977059 0.000273178 0)
(0.0975893 0.000276918 0)
(0.0974738 0.000280406 0)
(0.0973596 0.000283622 0)
(0.0972466 0.000286538 0)
(0.0971351 0.000289119 0)
(0.097025 0.000291327 0)
(0.0969166 0.000293124 0)
(0.09681 0.000294475 0)
(0.0967051 0.000295356 0)
(0.0966023 0.000295751 0)
(0.0965015 0.00029566 0)
(0.0964029 0.000295098 0)
(0.0963064 0.000294095 0)
(0.0962123 0.000292706 0)
(0.0961204 0.000291002 0)
(0.0960307 0.000289075 0)
(0.0959433 0.00028704 0)
(0.095858 0.000285031 0)
(0.0957748 0.000283206 0)
(0.0956934 0.00028174 0)
(0.0956138 0.000280836 0)
(0.0955356 0.000280715 0)
(0.0954585 0.000281623 0)
(0.0953823 0.000283831 0)
(0.0953065 0.000287636 0)
(0.0952308 0.000293366 0)
(0.0951547 0.000301385 0)
(0.0950776 0.000312092 0)
(0.094999 0.000325936 0)
(0.0949183 0.000343417 0)
(0.0948347 0.000365101 0)
(0.0947476 0.000391631 0)
(0.0946561 0.000423744 0)
(0.0945594 0.000462289 0)
(0.0944566 0.000508251 0)
(0.0943466 0.000562779 0)
(0.0942285 0.00062722 0)
(0.094101 0.000703162 0)
(0.0939631 0.000792487 0)
(0.0938134 0.000897428 0)
(0.0936507 0.00102065 0)
(0.0934738 0.00116533 0)
(0.0932814 0.0013353 0)
(0.0930724 0.00153511 0)
(0.0928461 0.00177027 0)
(0.0926019 0.00204733 0)
(0.0923403 0.00237417 0)
(0.0920624 0.0027601 0)
(0.0917713 0.0032161 0)
(0.091472 0.00375485 0)
(0.0911729 0.00439066 0)
(0.0908869 0.00513896 0)
(0.0906325 0.0060152 0)
(0.0904356 0.00703255 0)
(0.0903308 0.00819793 0)
(0.0903608 0.00950543 0)
(0.0905741 0.0109268 0)
(0.0910162 0.0123998 0)
(0.0917138 0.0138178 0)
(0.092647 0.0150329 0)
(0.100002 6.57385e-06 0)
(0.0999984 4.44969e-05 0)
(0.099975 0.000111598 0)
(0.0999188 0.000191265 0)
(0.0998267 0.000261173 0)
(0.0997046 0.000306258 0)
(0.0995635 0.000324189 0)
(0.099415 0.000322282 0)
(0.0992671 0.000310942 0)
(0.0991241 0.000298588 0)
(0.0989872 0.000289796 0)
(0.0988558 0.000285819 0)
(0.0987287 0.000286001 0)
(0.0986047 0.000289024 0)
(0.0984827 0.000293644 0)
(0.0983623 0.000298969 0)
(0.098243 0.000304467 0)
(0.0981248 0.000309865 0)
(0.0980076 0.000315049 0)
(0.0978913 0.000319982 0)
(0.097776 0.000324658 0)
(0.0976618 0.000329071 0)
(0.0975487 0.000333208 0)
(0.0974368 0.000337046 0)
(0.0973261 0.000340552 0)
(0.0972169 0.000343688 0)
(0.097109 0.00034641 0)
(0.0970028 0.000348676 0)
(0.0968981 0.000350452 0)
(0.0967951 0.00035171 0)
(0.096694 0.000352435 0)
(0.0965946 0.000352631 0)
(0.0964972 0.000352317 0)
(0.0964018 0.000351533 0)
(0.0963083 0.000350342 0)
(0.0962167 0.00034883 0)
(0.0961271 0.000347107 0)
(0.0960394 0.000345306 0)
(0.0959534 0.000343584 0)
(0.0958692 0.000342125 0)
(0.0957864 0.000341136 0)
(0.0957049 0.000340849 0)
(0.0956246 0.000341524 0)
(0.095545 0.000343444 0)
(0.095466 0.000346923 0)
(0.0953871 0.000352305 0)
(0.0953079 0.000359967 0)
(0.0952282 0.000370326 0)
(0.0951472 0.000383839 0)
(0.0950647 0.000401017 0)
(0.09498 0.000422427 0)
(0.0948925 0.000448706 0)
(0.0948016 0.000480575 0)
(0.0947067 0.000518852 0)
(0.094607 0.000564473 0)
(0.0945018 0.000618514 0)
(0.0943903 0.000682218 0)
(0.0942718 0.000757027 0)
(0.0941455 0.00084462 0)
(0.0940106 0.000946958 0)
(0.0938663 0.00106633 0)
(0.0937121 0.00120543 0)
(0.0935473 0.00136741 0)
(0.0933717 0.00155594 0)
(0.0931853 0.00177534 0)
(0.0929885 0.00203061 0)
(0.0927824 0.00232756 0)
(0.0925691 0.00267283 0)
(0.092352 0.00307395 0)
(0.092136 0.00353927 0)
(0.0919286 0.00407777 0)
(0.0917397 0.00469869 0)
(0.0915834 0.00541077 0)
(0.0914776 0.00622102 0)
(0.091445 0.00713283 0)
(0.0915129 0.00814303 0)
(0.0917117 0.00923801 0)
(0.0920714 0.010389 0)
(0.0926158 0.0115477 0)
(0.0933521 0.0126447 0)
(0.094259 0.0135949 0)
(0.100002 6.39296e-06 0)
(0.100001 4.81229e-05 0)
(0.0999829 0.000123384 0)
(0.0999363 0.000214193 0)
(0.0998559 0.00029559 0)
(0.0997453 0.00035004 0)
(0.0996137 0.000373982 0)
(0.0994716 0.000374854 0)
(0.0993273 0.000364002 0)
(0.099186 0.000350956 0)
(0.0990497 0.000341158 0)
(0.0989186 0.000336358 0)
(0.098792 0.000336088 0)
(0.0986688 0.000339035 0)
(0.0985482 0.000343878 0)
(0.0984295 0.000349634 0)
(0.0983123 0.000355691 0)
(0.0981963 0.000361722 0)
(0.0980815 0.000367578 0)
(0.0979678 0.000373198 0)
(0.0978552 0.000378561 0)
(0.0977437 0.000383655 0)
(0.0976333 0.000388458 0)
(0.0975241 0.000392945 0)
(0.0974162 0.000397076 0)
(0.0973096 0.000400809 0)
(0.0972043 0.0004041 0)
(0.0971005 0.000406904 0)
(0.0969982 0.000409184 0)
(0.0968974 0.000410915 0)
(0.0967982 0.000412083 0)
(0.0967007 0.000412696 0)
(0.0966048 0.000412779 0)
(0.0965106 0.000412383 0)
(0.0964181 0.00041158 0)
(0.0963272 0.000410471 0)
(0.0962379 0.000409181 0)
(0.0961501 0.000407865 0)
(0.0960637 0.000406702 0)
(0.0959787 0.0004059 0)
(0.0958947 0.000405696 0)
(0.0958118 0.000406352 0)
(0.0957295 0.00040816 0)
(0.0956477 0.000411442 0)
(0.0955661 0.000416551 0)
(0.0954844 0.000423872 0)
(0.0954023 0.000433829 0)
(0.0953193 0.000446883 0)
(0.0952351 0.000463545 0)
(0.0951492 0.000484376 0)
(0.0950611 0.000509997 0)
(0.0949705 0.000541104 0)
(0.0948767 0.000578474 0)
(0.0947794 0.000622983 0)
(0.0946779 0.000675622 0)
(0.0945717 0.000737521 0)
(0.0944604 0.000809965 0)
(0.0943434 0.000894428 0)
(0.0942203 0.0009926 0)
(0.0940908 0.00110642 0)
(0.0939546 0.00123812 0)
(0.0938117 0.00139025 0)
(0.0936621 0.00156573 0)
(0.0935065 0.00176789 0)
(0.0933457 0.0020005 0)
(0.0931811 0.00226778 0)
(0.0930152 0.00257441 0)
(0.092851 0.0029255 0)
(0.0926932 0.00332648 0)
(0.0925477 0.00378293 0)
(0.0924225 0.00430024 0)
(0.0923277 0.0048832 0)
(0.092276 0.00553522 0)
(0.0922826 0.00625739 0)
(0.092365 0.0070471 0)
(0.0925427 0.00789635 0)
(0.092835 0.00878983 0)
(0.0932589 0.00970312 0)
(0.0938251 0.0106016 0)
(0.0945326 0.0114415 0)
(0.0953643 0.0121743 0)
(0.100002 5.83094e-06 0)
(0.100003 5.06796e-05 0)
(0.0999902 0.000133371 0)
(0.0999527 0.000234956 0)
(0.0998838 0.000328138 0)
(0.0997851 0.000392887 0)
(0.0996635 0.000424106 0)
(0.0995287 0.00042899 0)
(0.0993891 0.000419566 0)
(0.0992504 0.000406385 0)
(0.0991155 0.000395798 0)
(0.0989854 0.00039016 0)
(0.0988598 0.0003893 0)
(0.0987379 0.00039199 0)
(0.098619 0.000396883 0)
(0.0985023 0.000402924 0)
(0.0983874 0.000409431 0)
(0.0982741 0.000416019 0)
(0.098162 0.000422496 0)
(0.0980512 0.000428774 0)
(0.0979415 0.000434814 0)
(0.097833 0.000440589 0)
(0.0977256 0.000446072 0)
(0.0976195 0.00045123 0)
(0.0975145 0.000456021 0)
(0.0974108 0.000460399 0)
(0.0973083 0.000464318 0)
(0.0972072 0.000467733 0)
(0.0971075 0.000470608 0)
(0.0970091 0.000472918 0)
(0.0969122 0.000474656 0)
(0.0968166 0.000475833 0)
(0.0967225 0.000476483 0)
(0.0966298 0.000476665 0)
(0.0965384 0.000476464 0)
(0.0964484 0.000475995 0)
(0.0963597 0.000475399 0)
(0.0962721 0.000474849 0)
(0.0961855 0.000474546 0)
(0.0960999 0.000474721 0)
(0.0960151 0.000475637 0)
(0.0959309 0.000477584 0)
(0.0958471 0.000480885 0)
(0.0957634 0.000485894 0)
(0.0956797 0.000492998 0)
(0.0955957 0.000502619 0)
(0.095511 0.000515218 0)
(0.0954254 0.000531296 0)
(0.0953384 0.000551402 0)
(0.0952499 0.000576136 0)
(0.0951594 0.00060616 0)
(0.0950666 0.000642205 0)
(0.0949711 0.000685079 0)
(0.0948726 0.000735689 0)
(0.0947707 0.000795043 0)
(0.0946652 0.000864276 0)
(0.0945558 0.000944662 0)
(0.0944422 0.00103764 0)
(0.0943246 0.00114482 0)
(0.0942028 0.00126803 0)
(0.0940771 0.00140931 0)
(0.093948 0.00157093 0)
(0.0938161 0.00175544 0)
(0.0936827 0.00196562 0)
(0.0935493 0.00220451 0)
(0.0934182 0.00247536 0)
(0.0932922 0.00278158 0)
(0.0931752 0.00312664 0)
(0.0930721 0.00351393 0)
(0.092989 0.00394649 0)
(0.0929334 0.00442674 0)
(0.0929141 0.00495607 0)
(0.0929415 0.00553423 0)
(0.0930272 0.00615873 0)
(0.0931837 0.00682405 0)
(0.0934234 0.00752082 0)
(0.0937577 0.00823506 0)
(0.094195 0.00894782 0)
(0.0947391 0.00963532 0)
(0.0953861 0.0102703 0)
(0.0961231 0.010825 0)
(0.100002 4.89768e-06 0)
(0.100004 5.21539e-05 0)
(0.0999965 0.000141477 0)
(0.0999672 0.000253354 0)
(0.0999092 0.000358489 0)
(0.0998219 0.000434375 0)
(0.0997106 0.00047411 0)
(0.0995839 0.000484276 0)
(0.0994498 0.000477299 0)
(0.0993147 0.000464636 0)
(0.0991822 0.000453565 0)
(0.0990539 0.000447137 0)
(0.0989299 0.000445587 0)
(0.0988099 0.000447858 0)
(0.098693 0.00045263 0)
(0.0985787 0.000458808 0)
(0.0984665 0.000465648 0)
(0.098356 0.000472707 0)
(0.0982469 0.000479747 0)
(0.0981392 0.000486648 0)
(0.0980326 0.000493347 0)
(0.0979273 0.000499803 0)
(0.0978231 0.000505978 0)
(0.0977201 0.000511832 0)
(0.0976183 0.00051732 0)
(0.0975176 0.000522396 0)
(0.0974182 0.000527009 0)
(0.0973199 0.000531118 0)
(0.0972229 0.000534688 0)
(0.0971271 0.000537699 0)
(0.0970325 0.000540148 0)
(0.0969391 0.000542054 0)
(0.0968469 0.000543459 0)
(0.0967558 0.000544432 0)
(0.0966658 0.000545069 0)
(0.0965767 0.000545499 0)
(0.0964887 0.000545879 0)
(0.0964015 0.000546398 0)
(0.096315 0.000547277 0)
(0.0962291 0.000548769 0)
(0.0961436 0.000551155 0)
(0.0960585 0.000554754 0)
(0.0959734 0.000559911 0)
(0.0958883 0.000567009 0)
(0.095803 0.000576461 0)
(0.0957171 0.000588719 0)
(0.0956305 0.00060427 0)
(0.0955429 0.000623643 0)
(0.0954541 0.000647412 0)
(0.0953638 0.000676201 0)
(0.0952718 0.00071069 0)
(0.095178 0.000751621 0)
(0.095082 0.000799809 0)
(0.0949837 0.000856152 0)
(0.0948829 0.000921637 0)
(0.0947797 0.000997354 0)
(0.094674 0.00108451 0)
(0.0945659 0.00118443 0)
(0.0944556 0.00129859 0)
(0.0943436 0.00142859 0)
(0.0942305 0.00157618 0)
(0.0941171 0.00174327 0)
(0.0940046 0.00193189 0)
(0.0938946 0.00214418 0)
(0.0937891 0.00238235 0)
(0.0936906 0.00264864 0)
(0.0936024 0.0029452 0)
(0.0935284 0.00327399 0)
(0.0934732 0.00363661 0)
(0.0934424 0.0040341 0)
(0.0934423 0.00446669 0)
(0.09348 0.00493348 0)
(0.0935633 0.0054321 0)
(0.0937004 0.00595835 0)
(0.0938992 0.00650584 0)
(0.0941672 0.00706568 0)
(0.0945104 0.0076264 0)
(0.0949321 0.00817399 0)
(0.0954326 0.00869248 0)
(0.0960074 0.00916494 0)
(0.0966473 0.00957508 0)
(0.100002 3.62851e-06 0)
(0.100005 5.26165e-05 0)
(0.100001 0.00014777 0)
(0.0999791 0.000269383 0)
(0.0999307 0.000386503 0)
(0.0998541 0.000474215 0)
(0.0997531 0.000523594 0)
(0.0996348 0.000540267 0)
(0.0995072 0.000536783 0)
(0.0993768 0.000525357 0)
(0.0992476 0.00051419 0)
(0.099122 0.000507099 0)
(0.0990004 0.000504821 0)
(0.0988827 0.000506552 0)
(0.0987683 0.000511058 0)
(0.0986567 0.000517235 0)
(0.0985474 0.000524295 0)
(0.0984399 0.000531738 0)
(0.098334 0.000539282 0)
(0.0982295 0.000546769 0)
(0.0981262 0.00055411 0)
(0.0980242 0.000561247 0)
(0.0979233 0.000568129 0)
(0.0978236 0.000574711 0)
(0.097725 0.000580942 0)
(0.0976274 0.000586774 0)
(0.097531 0.00059216 0)
(0.0974357 0.000597057 0)
(0.0973414 0.000601437 0)
(0.0972482 0.000605286 0)
(0.097156 0.000608605 0)
(0.0970647 0.000611422 0)
(0.0969744 0.000613787 0)
(0.096885 0.000615781 0)
(0.0967963 0.000617511 0)
(0.0967084 0.000619117 0)
(0.0966212 0.00062077 0)
(0.0965345 0.000622676 0)
(0.0964482 0.000625069 0)
(0.0963622 0.00062822 0)
(0.0962764 0.00063243 0)
(0.0961906 0.000638034 0)
(0.0961047 0.000645398 0)
(0.0960186 0.000654923 0)
(0.0959321 0.000667042 0)
(0.095845 0.000682224 0)
(0.0957571 0.000700971 0)
(0.0956683 0.000723827 0)
(0.0955785 0.000751373 0)
(0.0954875 0.000784236 0)
(0.0953951 0.000823092 0)
(0.0953014 0.000868671 0)
(0.0952062 0.000921759 0)
(0.0951095 0.000983211 0)
(0.0950115 0.00105395 0)
(0.0949122 0.00113497 0)
(0.0948119 0.00122736 0)
(0.0947109 0.00133229 0)
(0.0946098 0.00145099 0)
(0.0945092 0.00158479 0)
(0.09441 0.0017351 0)
(0.0943135 0.00190336 0)
(0.094221 0.00209105 0)
(0.0941344 0.00229964 0)
(0.0940558 0.00253052 0)
(0.0939879 0.00278496 0)
(0.0939337 0.00306402 0)
(0.0938969 0.00336839 0)
(0.0938816 0.00369832 0)
(0.0938922 0.00405342 0)
(0.0939339 0.00443248 0)
(0.0940118 0.00483334 0)
(0.0941314 0.00525266 0)
(0.0942979 0.00568576 0)
(0.0945162 0.00612655 0)
(0.0947901 0.00656748 0)
(0.0951223 0.00699962 0)
(0.0955134 0.00741298 0)
(0.0959621 0.00779688 0)
(0.0964643 0.00814071 0)
(0.097013 0.00843475 0)
(0.100002 2.07758e-06 0)
(0.100006 5.22044e-05 0)
(0.100005 0.000152445 0)
(0.0999884 0.000283214 0)
(0.0999481 0.000412229 0)
(0.0998811 0.000512271 0)
(0.0997898 0.00057224 0)
(0.0996802 0.000596533 0)
(0.0995597 0.000597551 0)
(0.0994348 0.000588117 0)
(0.09931 0.000577314 0)
(0.0991879 0.000569772 0)
(0.0990694 0.000566801 0)
(0.0989546 0.00056793 0)
(0.0988431 0.000572065 0)
(0.0987345 0.000578132 0)
(0.0986283 0.000585312 0)
(0.098524 0.000593065 0)
(0.0984214 0.00060106 0)
(0.0983202 0.000609102 0)
(0.0982203 0.000617074 0)
(0.0981217 0.000624898 0)
(0.0980241 0.000632512 0)
(0.0979276 0.000639861 0)
(0.0978322 0.000646892 0)
(0.0977378 0.000653555 0)
(0.0976444 0.000659804 0)
(0.0975519 0.000665602 0)
(0.0974603 0.000670924 0)
(0.0973696 0.000675762 0)
(0.0972797 0.000680127 0)
(0.0971906 0.000684053 0)
(0.0971022 0.000687601 0)
(0.0970144 0.000690861 0)
(0.0969272 0.000693949 0)
(0.0968404 0.000697018 0)
(0.096754 0.00070025 0)
(0.0966679 0.00070386 0)
(0.0965819 0.000708098 0)
(0.0964961 0.000713245 0)
(0.0964102 0.000719614 0)
(0.0963242 0.000727553 0)
(0.0962379 0.00073744 0)
(0.0961512 0.000749685 0)
(0.0960641 0.00076473 0)
(0.0959763 0.000783047 0)
(0.095888 0.000805143 0)
(0.0957988 0.000831557 0)
(0.0957089 0.000862859 0)
(0.0956181 0.000899661 0)
(0.0955266 0.000942607 0)
(0.0954342 0.000992385 0)
(0.0953411 0.00104972 0)
(0.0952475 0.0011154 0)
(0.0951536 0.00119023 0)
(0.0950597 0.00127509 0)
(0.0949663 0.00137087 0)
(0.0948738 0.00147855 0)
(0.0947831 0.00159909 0)
(0.0946951 0.0017335 0)
(0.0946107 0.00188278 0)
(0.0945313 0.00204793 0)
(0.0944586 0.00222986 0)
(0.0943942 0.0024294 0)
(0.0943404 0.00264722 0)
(0.0942997 0.00288377 0)
(0.0942747 0.00313923 0)
(0.0942685 0.00341335 0)
(0.0942845 0.00370545 0)
(0.0943261 0.00401425 0)
(0.0943971 0.00433779 0)
(0.094501 0.00467337 0)
(0.0946413 0.00501743 0)
(0.0948212 0.00536556 0)
(0.0950432 0.00571249 0)
(0.095309 0.00605219 0)
(0.0956193 0.00637799 0)
(0.0959735 0.00668286 0)
(0.0963696 0.0069597 0)
(0.096804 0.00720175 0)
(0.0972718 0.00740309 0)
(0.100002 3.05887e-07 0)
(0.100007 5.10901e-05 0)
(0.100007 0.000155776 0)
(0.099995 0.000295145 0)
(0.0999614 0.000435861 0)
(0.0999028 0.00054854 0)
(0.0998204 0.000619834 0)
(0.0997193 0.000652691 0)
(0.0996064 0.000659138 0)
(0.0994877 0.000652444 0)
(0.0993681 0.000642519 0)
(0.0992503 0.000634814 0)
(0.0991356 0.00063127 0)
(0.0990242 0.000631804 0)
(0.0989161 0.000635518 0)
(0.0988108 0.000641402 0)
(0.0987079 0.000648635 0)
(0.0986069 0.000656639 0)
(0.0985077 0.000665046 0)
(0.0984099 0.000673624 0)
(0.0983134 0.000682228 0)
(0.0982181 0.000690759 0)
(0.0981238 0.000699142 0)
(0.0980306 0.000707313 0)
(0.0979383 0.000715216 0)
(0.0978469 0.0007228 0)
(0.0977564 0.000730022 0)
(0.0976667 0.000736849 0)
(0.0975777 0.000743263 0)
(0.0974894 0.000749262 0)
(0.0974018 0.000754865 0)
(0.0973147 0.000760115 0)
(0.0972281 0.00076508 0)
(0.0971419 0.000769859 0)
(0.097056 0.000774579 0)
(0.0969704 0.000779398 0)
(0.0968849 0.000784508 0)
(0.0967995 0.000790132 0)
(0.0967141 0.000796527 0)
(0.0966286 0.00080398 0)
(0.0965429 0.000812811 0)
(0.0964569 0.000823371 0)
(0.0963707 0.000836041 0)
(0.096284 0.00085123 0)
(0.0961969 0.000869376 0)
(0.0961093 0.000890944 0)
(0.0960211 0.000916425 0)
(0.0959325 0.000946337 0)
(0.0958435 0.000981222 0)
(0.0957541 0.00102165 0)
(0.0956643 0.00106821 0)
(0.0955745 0.00112153 0)
(0.0954848 0.00118224 0)
(0.0953955 0.00125102 0)
(0.095307 0.00132854 0)
(0.0952198 0.0014155 0)
(0.0951344 0.00151262 0)
(0.0950516 0.00162061 0)
(0.0949721 0.00174016 0)
(0.094897 0.00187194 0)
(0.0948275 0.00201657 0)
(0.0947649 0.00217458 0)
(0.0947106 0.00234641 0)
(0.0946666 0.00253231 0)
(0.0946347 0.00273238 0)
(0.0946169 0.00294645 0)
(0.0946157 0.00317402 0)
(0.0946335 0.00341428 0)
(0.0946727 0.00366597 0)
(0.0947359 0.00392736 0)
(0.0948256 0.00419623 0)
(0.0949442 0.00446981 0)
(0.0950935 0.00474478 0)
(0.0952754 0.00501733 0)
(0.0954909 0.00528317 0)
(0.0957405 0.00553765 0)
(0.0960238 0.00577594 0)
(0.0963397 0.00599312 0)
(0.0966861 0.00618447 0)
(0.0970602 0.00634563 0)
(0.0974582 0.00647288 0)
(0.100002 -1.62745e-06 0)
(0.100007 4.94528e-05 0)
(0.100009 0.000158069 0)
(0.0999994 0.000305533 0)
(0.099971 0.000457687 0)
(0.0999195 0.000583133 0)
(0.0998452 0.000666264 0)