/*--------------------------------*- C++ -*----------------------------------*\
| =========                 |                                                 |
| \\      /  F ield         | OpenFOAM: The Open Source CFD Toolbox           |
|  \\    /   O peration     | Version:  2106                                  |
|   \\  /    A nd           | Website:  www.openfoam.com                      |
|    \\/     M anipulation  |                                                 |
\*---------------------------------------------------------------------------*/
FoamFile
{
    version     2.0;
    format      ascii;
    arch        "LSB;label=32;scalar=64";
    class       surfaceScalarField;
    location    "1.6";
    object      phi;
}
// * * * * * * * * * * * * * * * * * * * * * * * * * * * * * * * * * * * * * //

dimensions      [1 0 -1 0 0 0 0];

oriented        oriented;

internalField   nonuniform List<scalar> 
23692
(
9.31154e-05
-3.57864e-08
9.31797e-05
-6.41687e-08
9.32675e-05
-8.7598e-08
9.33738e-05
-1.06011e-07
9.34943e-05
-1.20124e-07
9.36251e-05
-1.30302e-07
9.37624e-05
-1.36764e-07
9.39028e-05
-1.39785e-07
9.40433e-05
-1.39777e-07
9.41814e-05
-1.37312e-07
9.43155e-05
-1.33138e-07
9.44446e-05
-1.2809e-07
9.45687e-05
-1.23005e-07
9.46885e-05
-1.18627e-07
9.48053e-05
-1.15524e-07
9.49207e-05
-1.14054e-07
9.50365e-05
-1.14362e-07
9.51545e-05
-1.16415e-07
9.52761e-05
-1.20037e-07
9.54028e-05
-1.24972e-07
9.55355e-05
-1.30932e-07
9.5675e-05
-1.37631e-07
9.58218e-05
-1.4481e-07
9.59761e-05
-1.52258e-07
9.6138e-05
-1.59805e-07
9.63075e-05
-1.67323e-07
9.64845e-05
-1.7472e-07
9.66687e-05
-1.81932e-07
9.68601e-05
-1.88914e-07
9.70582e-05
-1.95631e-07
9.72627e-05
-2.02057e-07
9.74735e-05
-2.08171e-07
9.76901e-05
-2.13947e-07
9.79121e-05
-2.19367e-07
9.81393e-05
-2.24404e-07
9.83711e-05
-2.2903e-07
9.86071e-05
-2.33219e-07
9.88469e-05
-2.36939e-07
9.909e-05
-2.40154e-07
9.93358e-05
-2.42831e-07
9.95836e-05
-2.44928e-07
9.9833e-05
-2.46406e-07
0.000100083
-2.47216e-07
0.000100334
-2.47312e-07
0.000100583
-2.46641e-07
0.000100832
-2.4514e-07
0.000101077
-2.4275e-07
0.00010132
-2.39396e-07
0.000101558
-2.35e-07
0.000101791
-2.29471e-07
0.000102016
-2.22709e-07
0.000102234
-2.14599e-07
0.000102442
-2.05009e-07
0.000102639
-1.93787e-07
0.000102823
-1.80757e-07
0.000102992
-1.65714e-07
0.000103143
-1.48416e-07
0.000103275
-1.28577e-07
0.000103384
-1.05854e-07
0.000103467
-7.98352e-08
0.00010352
-5.00219e-08
0.000103538
-1.58022e-08
0.000103518
2.35944e-08
0.000103452
6.91464e-08
0.000103332
1.22087e-07
0.000103151
1.83999e-07
0.000102897
2.56952e-07
0.000102556
3.43694e-07
0.000102111
4.47939e-07
0.000101539
5.74808e-07
0.000100811
7.31501e-07
9.9885e-05
9.28373e-07
9.87071e-05
1.18065e-06
9.71985e-05
1.51126e-06
9.52456e-05
1.95556e-06
9.26791e-05
2.56915e-06
8.9241e-05
3.44077e-06
8.4529e-05
4.71458e-06
7.78901e-05
6.64144e-06
6.81875e-05
9.70517e-06
1.52132e-05
5.29768e-05
9.96369e-05
-7.33436e-08
9.97054e-05
-1.32593e-07
9.97992e-05
-1.81185e-07
9.99128e-05
-2.19294e-07
0.000100042
-2.48519e-07
0.000100181
-2.69593e-07
0.000100328
-2.82978e-07
0.000100478
-2.89244e-07
0.000100629
-2.89224e-07
0.000100776
-2.8412e-07
0.00010092
-2.75464e-07
0.000101058
-2.6499e-07
0.00010119
-2.54432e-07
0.000101318
-2.45324e-07
0.000101443
-2.38846e-07
0.000101566
-2.35744e-07
0.000101689
-2.36323e-07
0.000101815
-2.40505e-07
0.000101945
-2.47936e-07
0.00010208
-2.58087e-07
0.000102221
-2.7036e-07
0.00010237
-2.84161e-07
0.000102526
-2.9896e-07
0.00010269
-3.14316e-07
0.000102862
-3.29876e-07
0.000103043
-3.45375e-07
0.000103231
-3.60625e-07
0.000103427
-3.7549e-07
0.000103631
-3.89877e-07
0.000103841
-4.03715e-07
0.000104059
-4.1695e-07
0.000104283
-4.29534e-07
0.000104513
-4.41424e-07
0.00010475
-4.52569e-07
0.000104991
-4.6292e-07
0.000105237
-4.72424e-07
0.000105488
-4.8102e-07
0.000105743
-4.88642e-07
0.000106001
-4.95222e-07
0.000106262
-5.00684e-07
0.000106525
-5.0495e-07
0.00010679
-5.0793e-07
0.000107056
-5.09534e-07
0.000107321
-5.09659e-07
0.000107586
-5.08194e-07
0.000107849
-5.05022e-07
0.00010811
-5.00008e-07
0.000108367
-4.93006e-07
0.000108619
-4.83851e-07
0.000108865
-4.72363e-07
0.000109104
-4.58331e-07
0.000109334
-4.41522e-07
0.000109554
-4.21667e-07
0.000109762
-3.98454e-07
0.000109956
-3.71529e-07
0.000110134
-3.40469e-07
0.000110294
-3.04784e-07
0.000110433
-2.63895e-07
0.000110547
-2.17107e-07
0.000110634
-1.6359e-07
0.00011069
-1.02338e-07
0.000110709
-3.212e-08
0.000110687
4.86042e-08
0.000110618
1.41772e-07
0.000110493
2.4982e-07
0.000110304
3.7586e-07
0.000110041
5.23922e-07
0.000109688
6.99309e-07
0.00010923
9.09107e-07
0.000108645
1.16294e-06
0.000107905
1.4741e-06
0.000106975
1.86128e-06
0.000105808
2.35118e-06
0.000104339
2.98257e-06
0.000102485
3.81234e-06
0.000100133
4.92422e-06
9.71371e-05
6.43952e-06
9.33273e-05
8.52717e-06
8.85617e-05
1.14097e-05
8.29738e-05
1.52958e-05
1.97953e-05
7.83944e-05
0.000106615
-1.1259e-07
0.000106688
-2.05362e-07
0.000106788
-2.80843e-07
0.000106909
-3.40086e-07
0.000107046
-3.85511e-07
0.000107196
-4.18271e-07
0.000107352
-4.39089e-07
0.000107513
-4.4885e-07
0.000107673
-4.48846e-07
0.000107831
-4.40931e-07
0.000107984
-4.2748e-07
0.000108131
-4.11178e-07
0.000108273
-3.94715e-07
0.000108409
-3.80476e-07
0.000108542
-3.70294e-07
0.000108673
-3.6533e-07
0.000108805
-3.66063e-07
0.000108938
-3.72386e-07
0.000109076
-3.83744e-07
0.000109219
-3.99327e-07
0.000109369
-4.18202e-07
0.000109527
-4.39459e-07
0.000109692
-4.6227e-07
0.000109866
-4.85945e-07
0.000110049
-5.09939e-07
0.000110239
-5.33842e-07
0.000110439
-5.57357e-07
0.000110646
-5.80274e-07
0.000110862
-6.02445e-07
0.000111084
-6.2376e-07
0.000111315
-6.44136e-07
0.000111551
-6.63498e-07
0.000111795
-6.81774e-07
0.000112044
-6.98893e-07
0.000112299
-7.14776e-07
0.000112559
-7.29337e-07
0.000112824
-7.42485e-07
0.000113093
-7.54118e-07
0.000113365
-7.6413e-07
0.00011364
-7.72406e-07
0.000113917
-7.78822e-07
0.000114196
-7.83244e-07
0.000114476
-7.8553e-07
0.000114755
-7.85521e-07
0.000115033
-7.8305e-07
0.00011531
-7.77933e-07
0.000115583
-7.69964e-07
0.000115853
-7.58921e-07
0.000116117
-7.44552e-07
0.000116375
-7.26577e-07
0.000116625
-7.04679e-07
0.000116865
-6.785e-07
0.000117095
-6.47631e-07
0.000117311
-6.11603e-07
0.000117513
-5.6987e-07
0.000117698
-5.21802e-07
0.000117863
-4.66658e-07
0.000118007
-4.03566e-07
0.000118124
-3.31487e-07
0.000118213
-2.49181e-07
0.00011827
-1.55153e-07
0.000118289
-4.75783e-08
0.000118265
7.57979e-08
0.000118192
2.1779e-07
0.000118063
3.81911e-07
0.00011787
5.726e-07
0.000117602
7.95545e-07
0.000117246
1.05811e-06
0.000116789
1.36996e-06
0.000116211
1.74392e-06
0.000115491
2.19725e-06
0.000114602
2.75337e-06
0.000113512
3.44434e-06
0.000112183
4.31423e-06
0.000110576
5.42323e-06
0.000108651
6.85178e-06
0.000106392
8.70131e-06
0.000103839
1.10836e-05
0.000101173
1.40789e-05
9.88824e-05
1.75888e-05
2.08994e-05
9.77812e-05
0.000114082
-1.53559e-07
0.000114159
-2.82466e-07
0.000114265
-3.86687e-07
0.000114394
-4.68617e-07
0.00011454
-5.31422e-07
0.000114699
-5.76724e-07
0.000114867
-6.05549e-07
0.000115038
-6.19103e-07
0.000115209
-6.1917e-07
0.000115377
-6.08295e-07
0.000115541
-5.89738e-07
0.000115698
-5.67193e-07
0.000115849
-5.44364e-07
0.000115994
-5.24539e-07
0.000116136
-5.10253e-07
0.000116275
-5.03118e-07
0.000116415
-5.03808e-07
0.000116556
-5.12184e-07
0.000116702
-5.27504e-07
0.000116854
-5.48649e-07
0.000117012
-5.74347e-07
0.000117178
-6.03334e-07
0.000117353
-6.3448e-07
0.000117536
-6.66828e-07
0.000117728
-6.99624e-07
0.000117929
-7.32298e-07
0.000118139
-7.64438e-07
0.000118358
-7.95751e-07
0.000118584
-8.2603e-07
0.000118819
-8.55123e-07
0.00011906
-8.82911e-07
0.000119309
-9.09291e-07
0.000119565
-9.34164e-07
0.000119827
-9.57431e-07
0.000120094
-9.78983e-07
0.000120367
-9.98703e-07
0.000120645
-1.01646e-06
0.000120926
-1.03213e-06
0.000121211
-1.04555e-06
0.000121499
-1.05658e-06
0.000121789
-1.06503e-06
0.00012208
-1.07073e-06
0.000122372
-1.07349e-06
0.000122663
-1.07308e-06
0.000122953
-1.06929e-06
0.00012324
-1.06185e-06
0.000123525
-1.0505e-06
0.000123805
-1.03492e-06
0.000124079
-1.01479e-06
0.000124346
-9.89715e-07
0.000124604
-9.59276e-07
0.000124852
-9.22992e-07
0.000125089
-8.80314e-07
0.000125311
-8.30615e-07
0.000125519
-7.73171e-07
0.000125708
-7.07144e-07
0.000125876
-6.31556e-07
0.000126022
-5.45256e-07
0.000126141
-4.46889e-07
0.00012623
-3.34838e-07
0.000126286
-2.07166e-07
0.000126304
-6.15315e-08
0.000126278
1.04931e-07
0.000126204
2.95748e-07
0.000126074
5.15272e-07
0.000125881
7.68935e-07
0.000125617
1.06356e-06
0.000125271
1.40783e-06
0.000124831
1.81281e-06
0.000124286
2.2928e-06
0.00012362
2.86629e-06
0.00012282
3.55729e-06
0.00012187
4.39689e-06
0.000120763
5.42489e-06
0.000119499
6.69088e-06
0.0001181
8.25319e-06
0.000116633
1.01719e-05
0.000115231
1.24886e-05
0.000114136
1.51774e-05
0.000113687
1.80409e-05
2.05246e-05
0.000114065
0.000122071
-1.96314e-07
0.000122153
-3.63926e-07
0.000122265
-4.98833e-07
0.000122402
-6.05089e-07
0.000122558
-6.86549e-07
0.000122727
-7.45338e-07
0.000122905
-7.82805e-07
0.000123087
-8.0052e-07
0.00012327
-8.00768e-07
0.00012345
-7.86818e-07
0.000123624
-7.62863e-07
0.000123792
-7.33654e-07
0.000123953
-7.03964e-07
0.000124108
-6.78043e-07
0.000124258
-6.59177e-07
0.000124406
-6.49471e-07
0.000124554
-6.49818e-07
0.000124704
-6.60061e-07
0.000124858
-6.79264e-07
0.000125018
-7.05999e-07
0.000125184
-7.38635e-07
0.000125359
-7.75547e-07
0.000125542
-8.15269e-07
0.000125735
-8.56567e-07
0.000125936
-8.98461e-07
0.000126147
-9.40208e-07
0.000126367
-9.81268e-07
0.000126595
-1.02126e-06
0.000126833
-1.0599e-06
0.000127078
-1.097e-06
0.00012733
-1.1324e-06
0.00012759
-1.16597e-06
0.000127857
-1.19757e-06
0.000128131
-1.22708e-06
0.000128409
-1.25435e-06
0.000128694
-1.27924e-06
0.000128982
-1.30159e-06
0.000129275
-1.32121e-06
0.000129572
-1.33792e-06
0.00012987
-1.35152e-06
0.000130171
-1.3618e-06
0.000130473
-1.36851e-06
0.000130775
-1.37142e-06
0.000131076
-1.37025e-06
0.000131375
-1.3647e-06
0.000131672
-1.35447e-06
0.000131964
-1.3392e-06
0.000132252
-1.31851e-06
0.000132533
-1.29198e-06
0.000132807
-1.25912e-06
0.000133071
-1.21941e-06
0.000133324
-1.17225e-06
0.000133565
-1.11695e-06
0.000133791
-1.05275e-06
0.000134001
-9.78748e-07
0.000134192
-8.93922e-07
0.000134361
-7.97078e-07
0.000134507
-6.86826e-07
0.000134626
-5.61533e-07
0.000134714
-4.19272e-07
0.000134768
-2.57751e-07
0.000134785
-7.42272e-08
0.000134759
1.34602e-07
0.000134686
3.72736e-07
0.00013456
6.45043e-07
0.000134376
9.57478e-07
0.000134126
1.31736e-06
0.000133803
1.73374e-06
0.000133402
2.2178e-06
0.000132915
2.78343e-06
0.000132337
3.44779e-06
0.000131666
4.23192e-06
0.000130906
5.16125e-06
0.000130068
6.26551e-06
0.000129185
7.57755e-06
0.000128313
9.12938e-06
0.000127545
1.0943e-05
0.000127026
1.30115e-05
0.000126941
1.52656e-05
0.000127465
1.75202e-05
1.94173e-05
0.000128575
0.000130621
-2.40925e-07
0.000130707
-4.49783e-07
0.000130826
-6.17399e-07
0.000130971
-7.4969e-07
0.000131136
-8.51168e-07
0.000131316
-9.24474e-07
0.000131505
-9.71313e-07
0.000131699
-9.93627e-07
0.000131893
-9.94231e-07
0.000132085
-9.77149e-07
0.000132271
-9.47538e-07
0.00013245
-9.11252e-07
0.000132621
-8.7419e-07
0.000132787
-8.41615e-07
0.000132947
-8.17619e-07
0.000133104
-8.04837e-07
0.000133261
-8.04418e-07
0.000133419
-8.16211e-07
0.000133581
-8.39092e-07
0.000133749
-8.71319e-07
0.000133924
-9.10891e-07
0.000134107
-9.55807e-07
0.000134298
-1.00425e-06
0.000134499
-1.05468e-06
0.00013471
-1.10589e-06
0.000134929
-1.15693e-06
0.000135158
-1.20713e-06
0.000135396
-1.256e-06
0.000135643
-1.30319e-06
0.000135898
-1.34846e-06
0.000136161
-1.39159e-06
0.000136431
-1.43242e-06
0.000136708
-1.4708e-06
0.000136991
-1.50655e-06
0.00013728
-1.5395e-06
0.000137574
-1.56947e-06
0.000137873
-1.59627e-06
0.000138175
-1.61966e-06
0.000138481
-1.63944e-06
0.000138789
-1.65534e-06
0.000139098
-1.6671e-06
0.000139408
-1.67445e-06
0.000139718
-1.67708e-06
0.000140027
-1.67466e-06
0.000140333
-1.66684e-06
0.000140636
-1.65324e-06
0.000140935
-1.63344e-06
0.000141228
-1.60697e-06
0.000141513
-1.57333e-06
0.000141791
-1.53196e-06
0.000142058
-1.48221e-06
0.000142313
-1.4234e-06
0.000142555
-1.35471e-06
0.000142782
-1.27524e-06
0.000142992
-1.18396e-06
0.000143182
-1.07968e-06
0.00014335
-9.61043e-07
0.000143494
-8.2646e-07
0.000143611
-6.74098e-07
0.000143698
-5.01806e-07
0.000143751
-3.07059e-07
0.000143768
-8.68828e-08
0.000143745
1.62246e-07
0.000143677
4.44507e-07
0.000143561
7.64887e-07
0.000143393
1.12934e-06
0.00014317
1.54498e-06
0.000142887
2.0203e-06
0.000142544
2.56539e-06
0.000142139
3.19218e-06
0.000141676
3.91458e-06
0.000141163
4.74848e-06
0.000140617
5.71137e-06
0.000140065
6.82134e-06
0.000139552
8.09477e-06
0.000139143
9.54207e-06
0.000138929
1.11599e-05
0.000139026
1.29188e-05
0.00013955
1.47448e-05
0.000140575
1.64993e-05
1.79699e-05
0.000142026
0.000139769
-2.87478e-07
0.000139859
-5.40085e-07
0.000139985
-7.425e-07
0.000140138
-9.02599e-07
0.000140313
-1.02554e-06
0.000140504
-1.11448e-06
0.000140705
-1.17151e-06
0.000140911
-1.19895e-06
0.000141118
-1.20018e-06
0.000141322
-1.17998e-06
0.00014152
-1.14451e-06
0.000141711
-1.10076e-06
0.000141895
-1.0558e-06
0.000142071
-1.01596e-06
0.000142241
-9.86197e-07
0.000142408
-9.69726e-07
0.000142574
-9.6799e-07
0.000142741
-9.80873e-07
0.000142911
-1.00707e-06
0.000143087
-1.04455e-06
0.00014327
-1.09092e-06
0.00014346
-1.14379e-06
0.00014366
-1.20097e-06
0.000143869
-1.26062e-06
0.000144088
-1.32125e-06
0.000144316
-1.38171e-06
0.000144553
-1.44118e-06
0.0001448
-1.49905e-06
0.000145055
-1.55489e-06
0.000145319
-1.60838e-06
0.00014559
-1.65928e-06
0.000145869
-1.70737e-06
0.000146154
-1.75247e-06
0.000146446
-1.79436e-06
0.000146744
-1.83285e-06
0.000147046
-1.86771e-06
0.000147353
-1.8987e-06
0.000147663
-1.92558e-06
0.000147976
-1.94807e-06
0.000148291
-1.96588e-06
0.000148607
-1.97869e-06
0.000148923
-1.98618e-06
0.000149239
-1.98799e-06
0.000149552
-1.98375e-06
0.000149863
-1.97303e-06
0.00015017
-1.95539e-06
0.000150471
-1.93035e-06
0.000150766
-1.89738e-06
0.000151054
-1.85589e-06
0.000151332
-1.80524e-06
0.000151599
-1.74472e-06
0.000151854
-1.67352e-06
0.000152094
-1.59074e-06
0.000152319
-1.49539e-06
0.000152526
-1.38631e-06
0.000152713
-1.26221e-06
0.000152878
-1.1216e-06
0.000153019
-9.62791e-07
0.000153134
-7.83824e-07
0.000153219
-5.82448e-07
0.000153272
-3.56058e-07
0.000153292
-1.01639e-07
0.000153274
1.84301e-07
0.000153217
5.058e-07
0.000153119
8.67562e-07
0.000152978
1.27503e-06
0.000152792
1.73449e-06
0.000152564
2.25309e-06
0.000152295
2.83895e-06
0.00015199
3.50107e-06
0.00015166
4.24916e-06
0.000151319
5.09324e-06
0.000150992
6.04288e-06
0.000150711
7.10587e-06
0.000150524
8.286e-06
0.00015049
9.57972e-06
0.000150683
1.09711e-05
0.00015118
1.24254e-05
0.000152048
1.38812e-05
0.000153305
1.52456e-05
1.63982e-05
0.000154881
0.000149557
-3.36048e-07
0.000149652
-6.34883e-07
0.000149784
-8.74237e-07
0.000149946
-1.06397e-06
0.000150131
-1.20989e-06
0.000150333
-1.31567e-06
0.000150546
-1.38379e-06
0.000150765
-1.41701e-06
0.000150986
-1.41922e-06
0.000151203
-1.39601e-06
0.000151414
-1.35454e-06
0.000151618
-1.30298e-06
0.000151814
-1.2496e-06
0.000152002
-1.20186e-06
0.000152183
-1.16561e-06
0.00015236
-1.14472e-06
0.000152536
-1.14097e-06
0.000152711
-1.15432e-06
0.00015289
-1.18332e-06
0.000153074
-1.22563e-06
0.000153265
-1.27849e-06
0.000153463
-1.33912e-06
0.00015367
-1.40493e-06
0.000153886
-1.47374e-06
0.000154112
-1.54378e-06
0.000154348
-1.61369e-06
0.000154593
-1.68245e-06
0.000154847
-1.74934e-06
0.000155109
-1.81383e-06
0.000155381
-1.87552e-06
0.000155659
-1.93411e-06
0.000155946
-1.98935e-06
0.000156238
-2.04101e-06
0.000156537
-2.08884e-06
0.000156841
-2.1326e-06
0.00015715
-2.17204e-06
0.000157463
-2.20688e-06
0.000157779
-2.23683e-06
0.000158097
-2.26158e-06
0.000158416
-2.28078e-06
0.000158737
-2.29409e-06
0.000159056
-2.30113e-06
0.000159375
-2.30148e-06
0.000159691
-2.29472e-06
0.000160003
-2.28039e-06
0.00016031
-2.25799e-06
0.000160612
-2.22696e-06
0.000160906
-2.18672e-06
0.000161192
-2.13663e-06
0.000161468
-2.07597e-06
0.000161732
-2.00396e-06
0.000161983
-1.91973e-06
0.00016222
-1.82233e-06
0.00016244
-1.71067e-06
0.000162642
-1.58355e-06
0.000162824
-1.43961e-06
0.000162985
-1.27732e-06
0.000163122
-1.09496e-06
0.000163234
-8.90553e-07
0.000163318
-6.61889e-07
0.000163373
-4.06447e-07
0.000163398
-1.21377e-07
0.00016339
1.96529e-07
0.00016335
5.50869e-07
0.000163277
9.45707e-07
0.000163171
1.38556e-06
0.000163035
1.87541e-06
0.000162872
2.4206e-06
0.000162688
3.02681e-06
0.000162494
3.69978e-06
0.000162303
4.44497e-06
0.000162134
5.26707e-06
0.000162012
6.16914e-06
0.000161971
7.15148e-06
0.000162051
8.21e-06
0.000162301
9.33417e-06
0.000162772
1.05044e-05
0.000163512
1.16895e-05
0.000164553
1.28443e-05
0.000165892
1.39101e-05
1.48205e-05
0.000167474
0.000160032
-3.86705e-07
0.000160131
-7.34216e-07
0.00016027
-1.01269e-06
0.00016044
-1.23391e-06
0.000160636
-1.4044e-06
0.000160849
-1.5283e-06
0.000161075
-1.60853e-06
0.000161307
-1.64825e-06
0.000161541
-1.65193e-06
0.000161772
-1.62593e-06
0.000161998
-1.57842e-06
0.000162215
-1.51875e-06
0.000162424
-1.45645e-06
0.000162624
-1.40011e-06
0.000162817
-1.35659e-06
0.000163005
-1.33043e-06
0.000163191
-1.32382e-06
0.000163376
-1.33684e-06
0.000163563
-1.36793e-06
0.000163755
-1.41448e-06
0.000163953
-1.47336e-06
0.000164158
-1.54136e-06
0.000164372
-1.61553e-06
0.000164595
-1.69332e-06
0.000164828
-1.77263e-06
0.00016507
-1.85188e-06
0.000165321
-1.92985e-06
0.000165581
-2.00567e-06
0.00016585
-2.07869e-06
0.000166128
-2.14844e-06
0.000166412
-2.21455e-06
0.000166704
-2.27672e-06
0.000167002
-2.33466e-06
0.000167306
-2.38811e-06
0.000167615
-2.43678e-06
0.000167928
-2.48037e-06
0.000168245
-2.51858e-06
0.000168564
-2.55108e-06
0.000168885
-2.5775e-06
0.000169206
-2.59748e-06
0.000169528
-2.61062e-06
0.000169849
-2.6165e-06
0.000170167
-2.61466e-06
0.000170482
-2.60464e-06
0.000170793
-2.58592e-06
0.000171098
-2.55796e-06
0.000171397
-2.52016e-06
0.000171687
-2.47189e-06
0.000171968
-2.41245e-06
0.000172239
-2.3411e-06
0.000172497
-2.25702e-06
0.000172742
-2.15929e-06
0.000172972
-2.04692e-06
0.000173185
-1.91881e-06
0.000173381
-1.77376e-06
0.000173557
-1.6104e-06
0.000173712
-1.42724e-06
0.000173845
-1.22262e-06
0.000173955
-9.94688e-07
0.000174039
-7.41388e-07
0.000174098
-4.60452e-07
0.000174132
-1.49391e-07
0.000174139
1.94506e-07
0.000174121
5.74156e-07
0.000174079
9.9272e-07
0.000174016
1.45353e-06
0.000173936
1.96001e-06
0.000173846
2.51556e-06
0.000173754
3.12336e-06
0.000173673
3.78613e-06
0.000173617
4.50573e-06
0.000173606
5.28269e-06
0.000173664
6.11555e-06
0.000173821
7.00011e-06
0.000174107
7.92844e-06
0.000174558
8.88792e-06
0.000175206
9.8602e-06
0.00017608
1.08206e-05
0.00017719
1.17381e-05
0.000178528
1.2577e-05
1.3301e-05
0.000180052
0.000171239
-4.395e-07
0.000171343
-8.38097e-07
0.000171489
-1.1579e-06
0.000171668
-1.4125e-06
0.000171874
-1.60917e-06
0.000172099
-1.75256e-06
0.000172337
-1.84599e-06
0.000172583
-1.89307e-06
0.000172831
-1.89881e-06
0.000173077
-1.87034e-06
0.000173317
-1.81684e-06
0.000173549
-1.74884e-06
0.000173772
-1.67713e-06
0.000173986
-1.61151e-06
0.000174191
-1.55984e-06
0.000174391
-1.52745e-06
0.000174586
-1.51699e-06
0.000174781
-1.52871e-06
0.000174977
-1.56099e-06
0.000175177
-1.61098e-06
0.000175382
-1.6752e-06
0.000175594
-1.75003e-06
0.000175814
-1.83211e-06
0.000176043
-1.9185e-06
0.000176281
-2.00681e-06
0.000176528
-2.09516e-06
0.000176785
-2.18211e-06
0.00017705
-2.26663e-06
0.000177324
-2.34796e-06
0.000177605
-2.4255e-06
0.000177894
-2.49884e-06
0.00017819
-2.56759e-06
0.000178491
-2.63144e-06
0.000178798
-2.69006e-06
0.00017911
-2.74313e-06
0.000179425
-2.79034e-06
0.000179743
-2.83132e-06
0.000180063
-2.86572e-06
0.000180384
-2.89314e-06
0.000180705
-2.91317e-06
0.000181025
-2.92538e-06
0.000181343
-2.92931e-06
0.000181658
-2.92448e-06
0.00018197
-2.91037e-06
0.000182276
-2.88644e-06
0.000182576
-2.85211e-06
0.000182868
-2.80676e-06
0.000183152
-2.74973e-06
0.000183425
-2.6803e-06
0.000183687
-2.5977e-06
0.000183937
-2.50109e-06
0.000184173
-2.38958e-06
0.000184394
-2.26218e-06
0.000184599
-2.11783e-06
0.000184786
-1.95534e-06
0.000184955
-1.77347e-06
0.000185104
-1.57081e-06
0.000185233
-1.34589e-06
0.000185341
-1.09705e-06
0.000185428
-8.22551e-07
0.000185493
-5.2051e-07
0.000185538
-1.88944e-07
0.000185564
1.742e-07
0.000185573
5.71006e-07
0.000185567
1.0036e-06
0.000185552
1.47403e-06
0.000185534
1.98418e-06
0.000185519
2.53558e-06
0.000185518
3.12926e-06
0.000185544
3.76549e-06
0.000185611
4.44345e-06
0.000185738
5.16094e-06
0.000185945
5.91391e-06
0.000186254
6.69606e-06
0.000186689
7.49845e-06
0.000187273
8.30912e-06
0.000188025
9.11295e-06
0.000188959
9.89183e-06
0.000190076
1.06253e-05
0.000191366
1.12921e-05
1.18726e-05
0.000192799
0.000183232
-4.94462e-07
0.000183341
-9.46508e-07
0.000183493
-1.30984e-06
0.000183681
-1.59971e-06
0.000183897
-1.82422e-06
0.000184133
-1.98849e-06
0.000184385
-2.09631e-06
0.000184645
-2.15169e-06
0.000184908
-2.16019e-06
0.000185169
-2.12969e-06
0.000185424
-2.07035e-06
0.000185671
-1.99388e-06
0.000185908
-1.91232e-06
0.000186136
-1.83671e-06
0.000186354
-1.77598e-06
0.000186566
-1.73629e-06
0.000186772
-1.72083e-06
0.000186977
-1.73011e-06
0.000187181
-1.7625e-06
0.000187389
-1.81494e-06
0.000187601
-1.88361e-06
0.000187819
-1.96451e-06
0.000188044
-2.05386e-06
0.000188278
-2.14833e-06
0.000188521
-2.24517e-06
0.000188772
-2.34221e-06
0.000189032
-2.43778e-06
0.000189301
-2.53064e-06
0.000189577
-2.6199e-06
0.000189861
-2.70485e-06
0.000190153
-2.78497e-06
0.00019045
-2.85984e-06
0.000190753
-2.92907e-06
0.00019106
-2.9923e-06
0.000191372
-3.04917e-06
0.000191686
-3.09932e-06
0.000192003
-3.14237e-06
0.00019232
-3.17791e-06
0.000192639
-3.20554e-06
0.000192956
-3.2248e-06
0.000193272
-3.23523e-06
0.000193585
-3.23636e-06
0.000193894
-3.22767e-06
0.000194198
-3.20862e-06
0.000194496
-3.17865e-06
0.000194787
-3.13717e-06
0.00019507
-3.08354e-06
0.000195343
-3.0171e-06
0.000195606
-2.93712e-06
0.000195858
-2.84287e-06
0.000196096
-2.73352e-06
0.000196321
-2.60822e-06
0.000196531
-2.46604e-06
0.000196725
-2.30599e-06
0.000196903
-2.12703e-06
0.000197064
-1.92804e-06
0.000197207
-1.70782e-06
0.000197332
-1.46513e-06
0.00019744
-1.19865e-06
0.00019753
-9.07018e-07
0.000197604
-5.88851e-07
0.000197664
-2.42767e-07
0.000197712
1.32556e-07
0.00019775
5.38321e-07
0.000197784
9.75609e-07
0.000197819
1.44527e-06
0.000197861
1.94778e-06
0.000197919
2.48317e-06
0.000198003
3.05078e-06
0.000198125
3.64917e-06
0.000198298
4.27584e-06
0.000198537
4.9271e-06
0.000198859
5.59782e-06
0.000199279
6.2813e-06
0.000199814
6.96914e-06
0.000200477
7.6513e-06
0.000201279
8.31621e-06
0.000202224
8.9512e-06
0.000203312
9.54315e-06
0.000204529
1.00795e-05
1.05498e-05
0.000205857
0.000196064
-5.51589e-07
0.000196178
-1.05937e-06
0.000196337
-1.46841e-06
0.000196533
-1.79543e-06
0.000196759
-2.04943e-06
0.000197007
-2.23603e-06
0.000197272
-2.35945e-06
0.000197546
-2.42414e-06
0.000197823
-2.43619e-06
0.000198099
-2.40419e-06
0.00019837
-2.33926e-06
0.000198633
-2.25423e-06
0.000198885
-2.16243e-06
0.000199127
-2.07613e-06
0.000199359
-2.00539e-06
0.000199583
-1.95726e-06
0.0001998
-1.93555e-06
0.000200015
-1.94109e-06
0.000200228
-1.97231e-06
0.000200442
-2.026e-06
0.000200661
-2.09804e-06
0.000200884
-2.18405e-06
0.000201114
-2.27983e-06
0.000201352
-2.38164e-06
0.000201597
-2.48637e-06
0.000201851
-2.59152e-06
0.000202113
-2.69516e-06
0.000202383
-2.79585e-06
0.000202661
-2.89251e-06
0.000202946
-2.98432e-06
0.000203237
-3.07067e-06
0.000203533
-3.15104e-06
0.000203835
-3.225e-06
0.00020414
-3.29214e-06
0.000204449
-3.35206e-06
0.00020476
-3.40437e-06
0.000205072
-3.44866e-06
0.000205384
-3.48449e-06
0.000205696
-3.51144e-06
0.000206007
-3.52903e-06
0.000206315
-3.53679e-06
0.000206619
-3.5342e-06
0.000206918
-3.52076e-06
0.000207212
-3.49592e-06
0.000207499
-3.45911e-06
0.000207778
-3.40974e-06
0.000208048
-3.34718e-06
0.000208308
-3.2708e-06
0.000208557
-3.17992e-06
0.000208795
-3.07381e-06
0.00020902
-2.95175e-06
0.000209231
-2.81294e-06
0.000209428
-2.65658e-06
0.00020961
-2.48181e-06
0.000209778
-2.28777e-06
0.00020993
-2.07353e-06
0.000210066
-1.83817e-06
0.000210189
-1.58076e-06
0.000210297
-1.30036e-06
0.000210392
-9.96082e-07
0.000210477
-6.67064e-07
0.000210553
-3.12561e-07
0.000210624
6.80218e-08
0.000210693
4.75056e-07
0.000210767
9.0868e-07
0.000210849
1.36872e-06
0.000210949
1.85457e-06
0.000211073
2.36512e-06
0.000211231
2.89862e-06
0.000211434
3.45259e-06
0.000211692
4.02372e-06
0.000212017
4.60778e-06
0.000212421
5.19957e-06
0.000212915
5.79292e-06
0.000213509
6.38073e-06
0.000214211
6.95512e-06
0.000215025
7.50769e-06
0.000215952
8.02983e-06
0.000216988
8.51326e-06
0.000218122
8.95069e-06
9.33661e-06
0.00021934
0.000209796
-6.10824e-07
0.000209913
-1.17655e-06
0.000210078
-1.6334e-06
0.000210283
-1.99942e-06
0.000210519
-2.28452e-06
0.000210779
-2.49487e-06
0.000211056
-2.63513e-06
0.000211343
-2.71018e-06
0.000211635
-2.72661e-06
0.000211927
-2.69372e-06
0.000212213
-2.6235e-06
0.000212491
-2.52992e-06
0.000212758
-2.42752e-06
0.000213015
-2.32985e-06
0.00021326
-2.24813e-06
0.000213496
-2.19036e-06
0.000213725
-2.16104e-06
0.000213949
-2.16141e-06
0.00021417
-2.19003e-06
0.000214392
-2.24359e-06
0.000214615
-2.31773e-06
0.000214843
-2.40768e-06
0.000215076
-2.50884e-06
0.000215316
-2.61706e-06
0.000215564
-2.72882e-06
0.000215818
-2.84131e-06
0.00021608
-2.9523e-06
0.00021635
-3.06011e-06
0.000216626
-3.16347e-06
0.000216909
-3.26144e-06
0.000217197
-3.35327e-06
0.00021749
-3.43839e-06
0.000217787
-3.51628e-06
0.000218088
-3.5865e-06
0.00021839
-3.64861e-06
0.000218694
-3.70218e-06
0.000218999
-3.74678e-06
0.000219303
-3.78196e-06
0.000219605
-3.80727e-06
0.000219905
-3.82223e-06
0.000220201
-3.82635e-06
0.000220493
-3.81914e-06
0.000220779
-3.80007e-06
0.000221058
-3.76861e-06
0.00022133
-3.72421e-06
0.000221594
-3.6663e-06
0.000221848
-3.59431e-06
0.000222092
-3.50764e-06
0.000222324
-3.40567e-06
0.000222545
-3.28777e-06
0.000222754
-3.1533e-06
0.00022295
-3.0016e-06
0.000223132
-2.83202e-06
0.000223301
-2.64389e-06
0.000223457
-2.43655e-06
0.0002236
-2.20935e-06
0.00022373
-1.96167e-06
0.000223849
-1.69293e-06
0.000223958
-1.40262e-06
0.000224059
-1.0903e-06
0.000224155
-7.5568e-07
0.000224248
-3.98596e-07
0.000224342
-1.90996e-08
0.000224441
3.8248e-07
0.000224551
8.05487e-07
0.000224677
1.24899e-06
0.000224827
1.71163e-06
0.000225007
2.19159e-06
0.000225225
2.6865e-06
0.000225491
3.19345e-06
0.000225812
3.7089e-06
0.000226198
4.22875e-06
0.000226655
4.74827e-06
0.000227192
5.26225e-06
0.000227814
5.76506e-06
0.000228524
6.25082e-06
0.000229324
6.7136e-06
0.000230213
7.14769e-06
0.000231184
7.54795e-06
0.00023223
7.91017e-06
8.2316e-06
0.000233341
0.000224488
-6.72081e-07
0.00022461
-1.29781e-06
0.000224781
-1.80446e-06
0.000224994
-2.21124e-06
0.000225239
-2.529e-06
0.00022551
-2.76447e-06
0.000225799
-2.92277e-06
0.000226099
-3.00921e-06
0.000226405
-3.03088e-06
0.000226711
-2.9977e-06
0.000227013
-2.92255e-06
0.000227305
-2.82044e-06
0.000227588
-2.70713e-06
0.000227858
-2.59744e-06
0.000228117
-2.50377e-06
0.000228365
-2.43513e-06
0.000228604
-2.39679e-06
0.000228837
-2.39047e-06
0.000229065
-2.41493e-06
0.000229293
-2.46683e-06
0.000229521
-2.5416e-06
0.000229752
-2.63413e-06
0.000229987
-2.73941e-06
0.000230228
-2.85288e-06
0.000230474
-2.97063e-06
0.000230728
-3.08947e-06
0.000230988
-3.20688e-06
0.000231254
-3.3209e-06
0.000231526
-3.43009e-06
0.000231804
-3.53333e-06
0.000232087
-3.62975e-06
0.000232373
-3.71869e-06
0.000232663
-3.79958e-06
0.000232955
-3.8719e-06
0.000233248
-3.9352e-06
0.000233541
-3.98902e-06
0.000233834
-4.03291e-06
0.000234125
-4.06641e-06
0.000234414
-4.08907e-06
0.000234699
-4.1004e-06
0.00023498
-4.09993e-06
0.000235255
-4.08717e-06
0.000235524
-4.06163e-06
0.000235786
-4.0228e-06
0.000236039
-3.97017e-06
0.000236283
-3.90322e-06
0.000236518
-3.82145e-06
0.000236742
-3.72432e-06
0.000236955
-3.61133e-06
0.000237157
-3.48196e-06
0.000237347
-3.3357e-06
0.000237524
-3.17206e-06
0.000237691
-2.99056e-06
0.000237845
-2.79076e-06
0.000237988
-2.57225e-06
0.000238121
-2.33467e-06
0.000238244
-2.07773e-06
0.00023836
-1.80121e-06
0.00023847
-1.50502e-06
0.000238576
-1.18917e-06
0.000238682
-8.53849e-07
0.00023879
-4.99418e-07
0.000238904
-1.2646e-07
0.00023903
2.64163e-07
0.000239171
6.71241e-07
0.000239334
1.09333e-06
0.000239524
1.52862e-06
0.000239748
1.97496e-06
0.000240012
2.42975e-06
0.000240322
2.89006e-06
0.000240685
3.35255e-06
0.000241107
3.81353e-06
0.000241593
4.26903e-06
0.000242147
4.71489e-06
0.000242772
5.14682e-06
0.000243469
5.56056e-06
0.000244237
5.95206e-06
0.000245073
6.31757e-06
0.000245974
6.65395e-06
0.000246931
6.95881e-06
7.23091e-06
0.000247938
0.000240209
-7.35204e-07
0.000240335
-1.42284e-06
0.000240512
-1.98111e-06
0.000240732
-2.43028e-06
0.000240986
-2.78213e-06
0.000241267
-3.04399e-06
0.000241567
-3.22145e-06
0.000241879
-3.32024e-06
0.000242198
-3.34794e-06
0.000242518
-3.31508e-06
0.000242833
-3.23532e-06
0.00024314
-3.12473e-06
0.000243435
-3.00023e-06
0.000243719
-2.87788e-06
0.00024399
-2.7713e-06
0.000244248
-2.69057e-06
0.000244497
-2.64176e-06
0.000244738
-2.62716e-06
0.000244973
-2.64581e-06
0.000245205
-2.6944e-06
0.000245436
-2.76818e-06
0.000245668
-2.86174e-06
0.000245903
-2.96969e-06
0.000246143
-3.08706e-06
0.000246387
-3.20952e-06
0.000246636
-3.33351e-06
0.000246892
-3.45618e-06
0.000247152
-3.57533e-06
0.000247417
-3.68925e-06
0.000247687
-3.79668e-06
0.00024796
-3.89662e-06
0.000248236
-3.9883e-06
0.000248514
-4.07108e-06
0.000248794
-4.14441e-06
0.000249073
-4.20779e-06
0.000249352
-4.26075e-06
0.000249629
-4.30283e-06
0.000249904
-4.33356e-06
0.000250175
-4.35251e-06
0.000250441
-4.3592e-06
0.000250702
-4.35319e-06
0.000250956
-4.33402e-06
0.000251204
-4.30123e-06
0.000251443
-4.25438e-06
0.000251674
-4.19301e-06
0.000251895
-4.11668e-06
0.000252107
-4.02498e-06
0.000252308
-3.91748e-06
0.000252498
-3.79379e-06
0.000252678