/*--------------------------------*- C++ -*----------------------------------*\
| =========                 |                                                 |
| \\      /  F ield         | OpenFOAM: The Open Source CFD Toolbox           |
|  \\    /   O peration     | Version:  2106                                  |
|   \\  /    A nd           | Website:  www.openfoam.com                      |
|    \\/     M anipulation  |                                                 |
\*---------------------------------------------------------------------------*/
FoamFile
{
    version     2.0;
    format      ascii;
    arch        "LSB;label=32;scalar=64";
    class       volScalarField;
    location    "1.6";
    object      T;
}
// * * * * * * * * * * * * * * * * * * * * * * * * * * * * * * * * * * * * * //

dimensions      [0 0 0 1 0 0 0];

internalField   nonuniform List<scalar> 
12013
(
300.001
300.003
300.004
300.006
300.008
300.011
300.013
300.016
300.019
300.022
300.025
300.029
300.033
300.037
300.042
300.048
300.053
300.059
300.066
300.073
300.081
300.089
300.098
300.107
300.117
300.128
300.139
300.151
300.164
300.177
300.191
300.206
300.222
300.238
300.255
300.274
300.293
300.312
300.333
300.355
300.377
300.4
300.425
300.45
300.476
300.504
300.532
300.561
300.592
300.623
300.656
300.689
300.724
300.76
300.797
300.836
300.875
300.916
300.958
301.002
301.047
301.094
301.142
301.191
301.243
301.296
301.351
301.408
301.467
301.529
301.593
301.66
301.73
301.804
301.881
301.964
302.053
302.149
302.255
302.375
302.519
300.001
300.003
300.004
300.006
300.008
300.011
300.013
300.016
300.019
300.022
300.025
300.029
300.033
300.037
300.042
300.048
300.053
300.059
300.066
300.073
300.081
300.089
300.098
300.107
300.117
300.128
300.139
300.151
300.164
300.177
300.191
300.206
300.222
300.238
300.255
300.274
300.292
300.312
300.333
300.355
300.377
300.4
300.425
300.45
300.476
300.504
300.532
300.561
300.592
300.623
300.656
300.689
300.724
300.76
300.797
300.835
300.875
300.916
300.958
301.002
301.046
301.093
301.141
301.19
301.242
301.295
301.35
301.407
301.466
301.527
301.591
301.658
301.727
301.801
301.878
301.959
302.047
302.14
302.242
302.354
302.477
300.001
300.003
300.004
300.006
300.008
300.011
300.013
300.016
300.019
300.022
300.025
300.029
300.033
300.037
300.042
300.048
300.053
300.059
300.066
300.073
300.081
300.089
300.098
300.107
300.117
300.128
300.139
300.151
300.164
300.177
300.191
300.206
300.222
300.238
300.255
300.273
300.292
300.312
300.333
300.354
300.377
300.4
300.425
300.45
300.476
300.503
300.532
300.561
300.591
300.623
300.655
300.689
300.723
300.759
300.796
300.835
300.874
300.915
300.957
301
301.045
301.092
301.139
301.189
301.24
301.293
301.347
301.404
301.463
301.524
301.587
301.653
301.722
301.794
301.87
301.949
302.034
302.123
302.218
302.319
302.423
300.001
300.003
300.004
300.006
300.008
300.011
300.013
300.016
300.019
300.022
300.025
300.029
300.033
300.037
300.042
300.048
300.053
300.059
300.066
300.073
300.081
300.089
300.098
300.107
300.117
300.128
300.139
300.151
300.164
300.177
300.191
300.206
300.221
300.238
300.255
300.273
300.292
300.312
300.333
300.354
300.376
300.4
300.424
300.449
300.476
300.503
300.531
300.56
300.591
300.622
300.654
300.688
300.723
300.758
300.795
300.833
300.873
300.913
300.955
300.999
301.043
301.09
301.137
301.186
301.237
301.289
301.344
301.4
301.458
301.518
301.581
301.645
301.713
301.783
301.857
301.934
302.014
302.098
302.185
302.275
302.366
300.001
300.003
300.004
300.006
300.008
300.011
300.013
300.016
300.019
300.022
300.025
300.029
300.033
300.037
300.042
300.047
300.053
300.059
300.066
300.073
300.081
300.089
300.098
300.107
300.117
300.128
300.139
300.151
300.163
300.177
300.191
300.206
300.221
300.238
300.255
300.273
300.292
300.312
300.332
300.354
300.376
300.399
300.424
300.449
300.475
300.502
300.53
300.559
300.59
300.621
300.653
300.687
300.721
300.757
300.794
300.832
300.871
300.911
300.953
300.996
301.041
301.086
301.134
301.182
301.233
301.285
301.338
301.394
301.451
301.51
301.571
301.635
301.701
301.769
301.839
301.913
301.988
302.066
302.146
302.227
302.307
300.001
300.003
300.004
300.006
300.008
300.011
300.013
300.016
300.018
300.022
300.025
300.029
300.033
300.037
300.042
300.047
300.053
300.059
300.066
300.073
300.081
300.089
300.097
300.107
300.117
300.127
300.139
300.151
300.163
300.176
300.191
300.205
300.221
300.237
300.255
300.273
300.291
300.311
300.332
300.353
300.375
300.399
300.423
300.448
300.474
300.501
300.529
300.558
300.588
300.62
300.652
300.685
300.719
300.755
300.792
300.829
300.868
300.909
300.95
300.993
301.037
301.082
301.129
301.177
301.227
301.278
301.331
301.385
301.441
301.499
301.559
301.621
301.684
301.75
301.817
301.887
301.957
302.03
302.102
302.175
302.247
300.001
300.003
300.004
300.006
300.008
300.011
300.013
300.016
300.018
300.022
300.025
300.029
300.033
300.037
300.042
300.047
300.053
300.059
300.066
300.073
300.08
300.089
300.097
300.107
300.117
300.127
300.138
300.15
300.163
300.176
300.19
300.205
300.221
300.237
300.254
300.272
300.291
300.31
300.331
300.352
300.375
300.398
300.422
300.447
300.473
300.5
300.528
300.557
300.587
300.618
300.65
300.683
300.717
300.752
300.789
300.826
300.865
300.905
300.946
300.988
301.032
301.077
301.123
301.17
301.219
301.27
301.321
301.375
301.429
301.486
301.544
301.603
301.664
301.727
301.791
301.856
301.922
301.988
302.055
302.121
302.186
300.001
300.003
300.004
300.006
300.008
300.011
300.013
300.016
300.018
300.022
300.025
300.029
300.033
300.037
300.042
300.047
300.053
300.059
300.066
300.073
300.08
300.088
300.097
300.106
300.116
300.127
300.138
300.15
300.163
300.176
300.19
300.205
300.22
300.236
300.253
300.271
300.29
300.31
300.33
300.351
300.373
300.397
300.421
300.445
300.471
300.498
300.526
300.555
300.585
300.615
300.647
300.68
300.714
300.749
300.785
300.822
300.86
300.9
300.94
300.982
301.025
301.069
301.115
301.162
301.21
301.259
301.309
301.361
301.415
301.469
301.525
301.582
301.64
301.7
301.76
301.821
301.882
301.944
302.005
302.065
302.124
300.001
300.003
300.004
300.006
300.008
300.01
300.013
300.016
300.018
300.022
300.025
300.029
300.033
300.037
300.042
300.047
300.053
300.059
300.065
300.073
300.08
300.088
300.097
300.106
300.116
300.127
300.138
300.15
300.162
300.175
300.189
300.204
300.219
300.236
300.253
300.27
300.289
300.309
300.329
300.35
300.372
300.395
300.419
300.444
300.469
300.496
300.524
300.552
300.582
300.612
300.644
300.676
300.71
300.745
300.78
300.817
300.855
300.894
300.934
300.975
301.017
301.061
301.105
301.151
301.198
301.246
301.295
301.345
301.397
301.449
301.503
301.557
301.613
301.669
301.725
301.782
301.839
301.896
301.952
302.008
302.062
300.001
300.003
300.004
300.006
300.008
300.01
300.013
300.015
300.018
300.021
300.025
300.029
300.033
300.037
300.042
300.047
300.053
300.059
300.065
300.072
300.08
300.088
300.097
300.106
300.116
300.126
300.137
300.149
300.161
300.175
300.189
300.203
300.219
300.235
300.252
300.269
300.288
300.307
300.327
300.348
300.37
300.393
300.417
300.442
300.467
300.493
300.521
300.549
300.578
300.609
300.64
300.672
300.705
300.739
300.775
300.811
300.848
300.886
300.926
300.966
301.008
301.05
301.093
301.138
301.184
301.23
301.278
301.326
301.376
301.426
301.477
301.529
301.581
301.634
301.687
301.74
301.793
301.846
301.898
301.949
301.999
300.001
300.002
300.004
300.006
300.008
300.01
300.013
300.015
300.018
300.021
300.025
300.029
300.033
300.037
300.042
300.047
300.052
300.059
300.065
300.072
300.08
300.088
300.096
300.105
300.115
300.126
300.137
300.148
300.161
300.174
300.188
300.202
300.218
300.234
300.25
300.268
300.286
300.306
300.326
300.347
300.368
300.391
300.414
300.439
300.464
300.49
300.517
300.545
300.574
300.604
300.635
300.667
300.7
300.733
300.768
300.803
300.84
300.878
300.916
300.956
300.996
301.037
301.08
301.123
301.167
301.212
301.258
301.304
301.352
301.4
301.448
301.497
301.546
301.596
301.646
301.695
301.744
301.793
301.841
301.888
301.934
300.001
300.002
300.004
300.006
300.008
300.01
300.013
300.015
300.018
300.021
300.025
300.028
300.032
300.037
300.042
300.047
300.052
300.058
300.065
300.072
300.079
300.087
300.096
300.105
300.115
300.125
300.136
300.148
300.16
300.173
300.187
300.201
300.216
300.232
300.249
300.266
300.285
300.304
300.324
300.344
300.366
300.388
300.411
300.436
300.461
300.486
300.513
300.541
300.569
300.599
300.629
300.66
300.693
300.726
300.76
300.795
300.83
300.867
300.905
300.943
300.982
301.022
301.063
301.105
301.148
301.191
301.235
301.279
301.324
301.37
301.416
301.462
301.508
301.555
301.601
301.647
301.693
301.738
301.782
301.826
301.869
300.001
300.002
300.004
300.006
300.008
300.01
300.013
300.015
300.018
300.021
300.025
300.028
300.032
300.037
300.041
300.046
300.052
300.058
300.064
300.071
300.079
300.087
300.095
300.104
300.114
300.124
300.135
300.147
300.159
300.172
300.185
300.2
300.215
300.231
300.247
300.264
300.282
300.301
300.321
300.342
300.363
300.385
300.408
300.432
300.456
300.482
300.508
300.535
300.563
300.592
300.622
300.653
300.684
300.717
300.75
300.784
300.819
300.855
300.891
300.928
300.966
301.005
301.045
301.085
301.126
301.167
301.209
301.251
301.294
301.337
301.38
301.424
301.467
301.511
301.554
301.597
301.639
301.681
301.722
301.763
301.802
300.001
300.002
300.004
300.006
300.008
300.01
300.013
300.015
300.018
300.021
300.024
300.028
300.032
300.036
300.041
300.046
300.052
300.058
300.064
300.071
300.078
300.086
300.095
300.104
300.113
300.123
300.134
300.146
300.158
300.171
300.184
300.198
300.213
300.229
300.245
300.262
300.28
300.299
300.318
300.338
300.359
300.381
300.404
300.427
300.451
300.476
300.502
300.529
300.557
300.585
300.614
300.644
300.675
300.706
300.739
300.772
300.806
300.84
300.876
300.912
300.948
300.986
301.024
301.062
301.101
301.14
301.18
301.22
301.261
301.301
301.342
301.383
301.423
301.464
301.504
301.544
301.583
301.622
301.66
301.698
301.735
300.001
300.002
300.004
300.006
300.008
300.01
300.013
300.015
300.018
300.021
300.024
300.028
300.032
300.036
300.041
300.046
300.051
300.057
300.063
300.07
300.078
300.085
300.094
300.103
300.112
300.122
300.133
300.144
300.156
300.169
300.182
300.196
300.211
300.226
300.242
300.259
300.277
300.295
300.314
300.334
300.355
300.376
300.399
300.422
300.445
300.47
300.495
300.522
300.548
300.576
300.605
300.634
300.664
300.694
300.726
300.758
300.791
300.824
300.858
300.893
300.928
300.964
301
301.036
301.073
301.111
301.149
301.186
301.224
301.263
301.301
301.339
301.377
301.414
301.452
301.489
301.525
301.561
301.597
301.632
301.666
300.001
300.002
300.004
300.006
300.008
300.01
300.012
300.015
300.018
300.021
300.024
300.028
300.032
300.036
300.04
300.045
300.051
300.057
300.063
300.07
300.077
300.085
300.093
300.102
300.111
300.121
300.132
300.143
300.155
300.167
300.18
300.194
300.208
300.224
300.24
300.256
300.273
300.292
300.31
300.33
300.35
300.371
300.393
300.415
300.439
300.463
300.487
300.513
300.539
300.566
300.594
300.622
300.651
300.681
300.711
300.742
300.773
300.805
300.838
300.871
300.905
300.939
300.973
301.008
301.043
301.079
301.114
301.15
301.185
301.221
301.257
301.292
301.328
301.363
301.397
301.432
301.466
301.499
301.532
301.564
301.596
300.001
300.002
300.004
300.006
300.008
300.01
300.012
300.015
300.018
300.021
300.024
300.027
300.031
300.035
300.04
300.045
300.05
300.056
300.062
300.069
300.076
300.084
300.092
300.1
300.11
300.12
300.13
300.141
300.153
300.165
300.178
300.191
300.206
300.221
300.236
300.252
300.269
300.287
300.305
300.325
300.344
300.365
300.386
300.408
300.431
300.454
300.478
300.503
300.528
300.554
300.581
300.608
300.636
300.665
300.694
300.724
300.754
300.785
300.816
300.848
300.879
300.912
300.944
300.977
301.01
301.044
301.077
301.11
301.144
301.177
301.21
301.243
301.276
301.309
301.341
301.373
301.404
301.435
301.465
301.495
301.525
300.001
300.002
300.004
300.006
300.008
300.01
300.012
300.015
300.017
300.02
300.024
300.027
300.031
300.035
300.039
300.044
300.05
300.055
300.061
300.068
300.075
300.083
300.091
300.099
300.108
300.118
300.128
300.139
300.15
300.162
300.175
300.188
300.202
300.217
300.232
300.248
300.265
300.282
300.3
300.319
300.338
300.358
300.378
300.4
300.422
300.444
300.468
300.492
300.516
300.541
300.567
300.593
300.62
300.648
300.675
300.704
300.733
300.762
300.791
300.821
300.852
300.882
300.913
300.944
300.975
301.006
301.037
301.068
301.1
301.131
301.161
301.192
301.223
301.253
301.282
301.312
301.341
301.37
301.398
301.425
301.452
300.001
300.002
300.004
300.006
300.008
300.01
300.012
300.014
300.017
300.02
300.023
300.027
300.03
300.035
300.039
300.044
300.049
300.054
300.06
300.067
300.074
300.081
300.089
300.098
300.106
300.116
300.126
300.137
300.148
300.16
300.172
300.185
300.198
300.213
300.228
300.243
300.259
300.276
300.294
300.312
300.33
300.35
300.37
300.39
300.412
300.433
300.456
300.479
300.502
300.527
300.551
300.576
300.602
300.628
300.655
300.682
300.709
300.737
300.765
300.793
300.821
300.85
300.879
300.908
300.937
300.966
300.995
301.024
301.053
301.082
301.11
301.139
301.167
301.195
301.222
301.25
301.276
301.303
301.329
301.354
301.379
300.001
300.002
300.004
300.006
300.008
300.01
300.012
300.014
300.017
300.02
300.023
300.026
300.03
300.034
300.038
300.043
300.048
300.054
300.059
300.066
300.072
300.08
300.087
300.096
300.104
300.114
300.123
300.134
300.145
300.156
300.168
300.181
300.194
300.208
300.222
300.237
300.253
300.269
300.286
300.304
300.322
300.341
300.36
300.38
300.4
300.421
300.443
300.465
300.487
300.51
300.534
300.558
300.582
300.607
300.632
300.657
300.683
300.709
300.736
300.762
300.789
300.816
300.843
300.87
300.897
300.924
300.951
300.978
301.004
301.031
301.057
301.084
301.11
301.135
301.161
301.186
301.21
301.235
301.259
301.282
301.305
300.001
300.002
300.004
300.006
300.007
300.009
300.012
300.014
300.017
300.019
300.022
300.026
300.029
300.033
300.038
300.042
300.047
300.052
300.058
300.064
300.071
300.078
300.086
300.094
300.102
300.111
300.121
300.131
300.141
300.152
300.164
300.176
300.189
300.203
300.217
300.231
300.246
300.262
300.278
300.295
300.312
300.33
300.349
300.368
300.387
300.407
300.428
300.449
300.47
300.492
300.514
300.537
300.56
300.583
300.607
300.631
300.655
300.68
300.704
300.729
300.754
300.779
300.804
300.829
300.854
300.879
300.904
300.929
300.954
300.978
301.003
301.027
301.051
301.074
301.098
301.121
301.143
301.166
301.188
301.209
301.23
300.001
300.002
300.004
300.005
300.007
300.009
300.011
300.014
300.016
300.019
300.022
300.025
300.029
300.033
300.037
300.041
300.046
300.051
300.057
300.063
300.069
300.076
300.083
300.091
300.099
300.108
300.117
300.127
300.137
300.148
300.159
300.171
300.184
300.197
300.21
300.224
300.238
300.254
300.269
300.285
300.302
300.319
300.337
300.355
300.373
300.392
300.412
300.431
300.452
300.472
300.493
300.515
300.536
300.558
300.58
300.603
300.625
300.648
300.671
300.694
300.717
300.74
300.764
300.787
300.81
300.833
300.856
300.879
300.901
300.924
300.946
300.968
300.99
301.012
301.033
301.054
301.075
301.096
301.116
301.136
301.155
300.001
300.002
300.004
300.005
300.007
300.009
300.011
300.013
300.016
300.018
300.021
300.025
300.028
300.032
300.036
300.04
300.045
300.05
300.055
300.061
300.067
300.074
300.081
300.088
300.096
300.105
300.114
300.123
300.133
300.143
300.154
300.166
300.177
300.19
300.203
300.216
300.23
300.244
300.259
300.274
300.29
300.306
300.323
300.34
300.358
300.376
300.394
300.413
300.432
300.451
300.471
300.491
300.511
300.531
300.552
300.573
300.594
300.615
300.636
300.657
300.679
300.7
300.721
300.743
300.764
300.785
300.806
300.827
300.848
300.868
300.889
300.909
300.929
300.949
300.968
300.987
301.006
301.025
301.043
301.062
301.079
300.001
300.002
300.004
300.005
300.007
300.009
300.011
300.013
300.015
300.018
300.021
300.024
300.027
300.031
300.035
300.039
300.043
300.048
300.053
300.059
300.065
300.071
300.078
300.085
300.093
300.101
300.11
300.119
300.128
300.138
300.148
300.159
300.17
300.182
300.194
300.207
300.22
300.234
300.248
300.262
300.277
300.293
300.308
300.324
300.341
300.358
300.375
300.392
300.41
300.428
300.446
300.465
300.484
300.503
300.522
300.541
300.56
300.58
300.599
300.619
300.638
300.658
300.677
300.697
300.716
300.736
300.755
300.774
300.793
300.812
300.83
300.848
300.867
300.885
300.902
300.92
300.937
300.954
300.971
300.987
301.003
300.001
300.002
300.003
300.005
300.007
300.008
300.01
300.013
300.015
300.017
300.02
300.023
300.026
300.03
300.033
300.037
300.042
300.046
300.051
300.057
300.063
300.069
300.075
300.082
300.089
300.097
300.105
300.114
300.123
300.132
300.142
300.152
300.163
300.174
300.186
300.197
300.21
300.223
300.236
300.249
300.263
300.278
300.292
300.307
300.323
300.338
300.354
300.371
300.387
300.404
300.421
300.438
300.455
300.472
300.49
300.507
300.525
300.543
300.561
300.579
300.596
300.614
300.632
300.65
300.667
300.685
300.702
300.72
300.737
300.754
300.771
300.787
300.804
300.82
300.836
300.852
300.868
300.883
300.898
300.913
300.927
300.001
300.002
300.003
300.005
300.006
300.008
300.01
300.012
300.014
300.017
300.019
300.022
300.025
300.028
300.032
300.036
300.04
300.044
300.049
300.054
300.06
300.066
300.072
300.078
300.085
300.092
300.1
300.108
300.117
300.126
300.135
300.145
300.155
300.165
300.176
300.187
300.199
300.211
300.223
300.235
300.248
300.262
300.275
300.289
300.303
300.318
300.333
300.347
300.363
300.378
300.393
300.409
300.425
300.441
300.457
300.473
300.489
300.505
300.521
300.537
300.554
300.57
300.586
300.602
300.618
300.634
300.649
300.665
300.68
300.696
300.711
300.726
300.741
300.755
300.77
300.784
300.798
300.812
300.825
300.839
300.852
300.001
300.002
300.003
300.005
300.006
300.008
300.01
300.012
300.014
300.016
300.018
300.021
300.024
300.027
300.03
300.034
300.038
300.042
300.047
300.052
300.057
300.062
300.068
300.074
300.081
300.088
300.095
300.102
300.11
300.119
300.127
300.136
300.146
300.155
300.165
300.176
300.187
300.198
300.209
300.221
300.233
300.245
300.257
300.27
300.283
300.296
300.31
300.323
300.337
300.351
300.365
300.379
300.394
300.408
300.423
300.437
300.452
300.466
300.481
300.496
300.51
300.525
300.539
300.553
300.568
300.582
300.596
300.61
300.624
300.638
300.651
300.664
300.678
300.691
300.704
300.716
300.729
300.741
300.754
300.766
300.777
300.001
300.002
300.003
300.004
300.006
300.007
300.009
300.011
300.013
300.015
300.017
300.02
300.023
300.026
300.029
300.032
300.036
300.04
300.044
300.049
300.054
300.059
300.064
300.07
300.076
300.082
300.089
300.096
300.103
300.111
300.119
300.127
300.136
300.145
300.154
300.164
300.174
300.184
300.194
300.205
300.216
300.227
300.238
300.25
300.262
300.274
300.286
300.298
300.311
300.323
300.336
300.349
300.362
300.375
300.388
300.401
300.414
300.427
300.44
300.453
300.466
300.479
300.492
300.505
300.517
300.53
300.543
300.555
300.567
300.58
300.592
300.604
300.615
300.627
300.638
300.65
300.661
300.672
300.683
300.693
300.704
300.001
300.002
300.003
300.004
300.005
300.007
300.009
300.01
300.012
300.014
300.016
300.019
300.021
300.024
300.027
300.03
300.034
300.037
300.041
300.046
300.05
300.055
300.06
300.065
300.071
300.077
300.083
300.089
300.096
300.103
300.11
300.118
300.126
300.134
300.143
300.151
300.16
300.169
300.179
300.189
300.199
300.209
300.219
300.229
300.24
300.251
300.262
300.273
300.284
300.295
300.307
300.318
300.329
300.341
300.353
300.364
300.376
300.387
300.399
300.41
300.422
300.433
300.445
300.456
300.467
300.479
300.49
300.501
300.512
300.522
300.533
300.543
300.554
300.564
300.574
300.584
300.594
300.604
300.613
300.623
300.632
300.001
300.002
300.003
300.004
300.005
300.007
300.008
300.01
300.011
300.013
300.015
300.017
300.02
300.022
300.025
300.028
300.031
300.035
300.038
300.042
300.046
300.051
300.055
300.06
300.065
300.071
300.076
300.082
300.088
300.095
300.101
300.108
300.115
300.123
300.13
300.138
300.146
300.155
300.163
300.172
300.181
300.19
300.199
300.208
300.218
300.227
300.237
300.247
300.257
300.267
300.277
300.287
300.297
300.307
300.317
300.328
300.338
300.348
300.358
300.368
300.378
300.388
300.398
300.408
300.418
300.428
300.438
300.447
300.457
300.466
300.475
300.485
300.494
300.503
300.512
300.52
300.529
300.537
300.546
300.554
300.562
300
300.001
300.002
300.004
300.005
300.006
300.007
300.009
300.01
300.012
300.014
300.016
300.018
300.021
300.023
300.026
300.029
300.032
300.035
300.039
300.042
300.046
300.05
300.055
300.06
300.064
300.069
300.075
300.08
300.086
300.092
300.098
300.105
300.111
300.118
300.125
300.132
300.14
300.147
300.155
300.163
300.171
300.179
300.187
300.195
300.204
300.212
300.221
300.23
300.238
300.247
300.256
300.265
300.274
300.283
300.291
300.3
300.309
300.318
300.327
300.336
300.344
300.353
300.362
300.37
300.379
300.387
300.395
300.404
300.412
300.42
300.428
300.436
300.443
300.451
300.459
300.466
300.473
300.481
300.488
300.495
300
300.001
300.002
300.003
300.004
300.005
300.007
300.008
300.01
300.011
300.013
300.015
300.017
300.019
300.021
300.023
300.026
300.029
300.032
300.035
300.038
300.042
300.046
300.05
300.054
300.058
300.063
300.067
300.072
300.077
300.083
300.088
300.094
300.099
300.105
300.112
300.118
300.124
300.131
300.138
300.145
300.151
300.159
300.166
300.173
300.18
300.188
300.195
300.203
300.21
300.218
300.225
300.233
300.241
300.248
300.256
300.264
300.271
300.279
300.287
300.294
300.302
300.309
300.316
300.324
300.331
300.338
300.345
300.352
300.359
300.366
300.373
300.38
300.387
300.393
300.4
300.406
300.412
300.418
300.425
300.43
300
300.001
300.002
300.003
300.004
300.005
300.006
300.007
300.009
300.01
300.012
300.013
300.015
300.017
300.019
300.021
300.023
300.026
300.028
300.031
300.034
300.037
300.041
300.044
300.048
300.052
300.056
300.06
300.064
300.068
300.073
300.078
300.083
300.088
300.093
300.098
300.104
300.109
300.115
300.121
300.127
300.133
300.139
300.145
300.151
300.157
300.164
300.17
300.177
300.183
300.19
300.196
300.203
300.209
300.216
300.222
300.229
300.235
300.242
300.248
300.255
300.261
300.267
300.273
300.28
300.286
300.292
300.298
300.304
300.31
300.316
300.322
300.327
300.333
300.338
300.344
300.349
300.355
300.36
300.365
300.37
300
300.001
300.002
300.003
300.003
300.004
300.005
300.006
300.008
300.009
300.01
300.012
300.013
300.015
300.017
300.019
300.021
300.023
300.025
300.028
300.03
300.033
300.036
300.039
300.042
300.045
300.049
300.052
300.056
300.06
300.064
300.068
300.072
300.076
300.081
300.085
300.09
300.095
300.1
300.105
300.11
300.115
300.12
300.125
300.13
300.136
300.141
300.146
300.152
300.157
300.163
300.168
300.174
300.179
300.185
300.19
300.196
300.201
300.206
300.212
300.217
300.223
300.228
300.233
300.238
300.243
300.249
300.254
300.259
300.264
300.268
300.273
300.278
300.283
300.287
300.292
300.297
300.301
300.305
300.31
300.314
300
300.001
300.002
300.002
300.003
300.004
300.005
300.006
300.007
300.008
300.009
300.01
300.012
300.013
300.015
300.016
300.018
300.02
300.022
300.024
300.026
300.028
300.031
300.034
300.036
300.039
300.042
300.045
300.048
300.051
300.055
300.058
300.062
300.065
300.069
300.073
300.077
300.081
300.085
300.089
300.093
300.098
300.102
300.106
300.111
300.115
300.12
300.124
300.129
300.133
300.138
300.142
300.147
300.151
300.156
300.16
300.165
300.169
300.174
300.178
300.183
300.187
300.192
300.196
300.2
300.204
300.209
300.213
300.217
300.221
300.225
300.229
300.233
300.237
300.241
300.245
300.248
300.252
300.256
300.259
300.263
300
300.001
300.001
300.002
300.003
300.003
300.004
300.005
300.006
300.007
300.008
300.009
300.01
300.011
300.013
300.014
300.015
300.017
300.019
300.02
300.022
300.024
300.026
300.029
300.031
300.033
300.036
300.038
300.041
300.044
300.046
300.049
300.052
300.055
300.058
300.062
300.065
300.068
300.071
300.075
300.078
300.082
300.085
300.089
300.093
300.096
300.1
300.104
300.107
300.111
300.115
300.118
300.122
300.126
300.13
300.133
300.137
300.141
300.144
300.148
300.152
300.155
300.159
300.162
300.166
300.169
300.173
300.176
300.18
300.183
300.186
300.189
300.193
300.196
300.199
300.202
300.205
300.208
300.211
300.214
300.217
300
300.001
300.001
300.002
300.002
300.003
300.004
300.004
300.005
300.006
300.007
300.007
300.008
300.01
300.011
300.012
300.013
300.014
300.016
300.017
300.019
300.021
300.022
300.024
300.026
300.028
300.03
300.032
300.034
300.036
300.039
300.041
300.044
300.046
300.049
300.051
300.054
300.057
300.059
300.062
300.065
300.068
300.071
300.074
300.077
300.079
300.082
300.085
300.088
300.091
300.094
300.097
300.1
300.104
300.107
300.11
300.112
300.115
300.118
300.121
300.124
300.127
300.13
300.133
300.136
300.139
300.141
300.144
300.147
300.149
300.152
300.155
300.157
300.16
300.162
300.165
300.167
300.17
300.172
300.174
300.177
300
300.001
300.001
300.001
300.002
300.002
300.003
300.004
300.004
300.005
300.006
300.006
300.007
300.008
300.009
300.01
300.011
300.012
300.013
300.015
300.016
300.017
300.019
300.02
300.022
300.023
300.025
300.027
300.028
300.03
300.032
300.034
300.036
300.038
300.04
300.042
300.044
300.047
300.049
300.051
300.053
300.056
300.058
300.06
300.063
300.065
300.068
300.07
300.072
300.075
300.077
300.08
300.082
300.085
300.087
300.089
300.092
300.094
300.096
300.099
300.101
300.103
300.106
300.108
300.11
300.113
300.115
300.117
300.119
300.121
300.123
300.126
300.128
300.13
300.132
300.134
300.136
300.138
300.139
300.141
300.143
300
300.001
300.001
300.001
300.002
300.002
300.003
300.003
300.004
300.004
300.005
300.005
300.006
300.007
300.008
300.008
300.009
300.01
300.011
300.012
300.013
300.014
300.016
300.017
300.018
300.019
300.021
300.022
300.024
300.025
300.027
300.028
300.03
300.032
300.033
300.035
300.037
300.039
300.04
300.042
300.044
300.046
300.048
300.05
300.052
300.054
300.056
300.058
300.06
300.062
300.063
300.065
300.067
300.069
300.071
300.073
300.075
300.077
300.079
300.081
300.083
300.085
300.087
300.088
300.09
300.092
300.094
300.096
300.097
300.099
300.101
300.102
300.104
300.106
300.107
300.109
300.111
300.112
300.114
300.115
300.117
300
300
300.001
300.001
300.001
300.002
300.002
300.003
300.003
300.004
300.004
300.005
300.005
300.006
300.007
300.007
300.008
300.009
300.01
300.011
300.011
300.012
300.013
300.014
300.016
300.017
300.018
300.019
300.02
300.022
300.023
300.024
300.026
300.027
300.028
300.03
300.031
300.033
300.034
300.036
300.037
300.039
300.041
300.042
300.044
300.045
300.047
300.049
300.05
300.052
300.054
300.055
300.057
300.059
300.06
300.062
300.063
300.065
300.067
300.068
300.07
300.071
300.073
300.074
300.076
300.077
300.079
300.08
300.082
300.083
300.085
300.086
300.087
300.089
300.09
300.092
300.093
300.094
300.095
300.097
300.098
300
300
300.001
300.001
300.001
300.002
300.002
300.002
300.003
300.003
300.004
300.004
300.005
300.005
300.006
300.007
300.007
300.008
300.009
300.01
300.01
300.011
300.012
300.013
300.014
300.015
300.016
300.017
300.018
300.02
300.021
300.022
300.023
300.024
300.026
300.027
300.028
300.03
300.031
300.032
300.034
300.035
300.037
300.038
300.04
300.041
300.042
300.044
300.045
300.047
300.048
300.05
300.051
300.053
300.054
300.056
300.057
300.058
300.06
300.061
300.063
300.064
300.065
300.067
300.068
300.069
300.071
300.072
300.073
300.075
300.076
300.077
300.079
300.08
300.081
300.082
300.083
300.084
300.086
300.087
300.088
302.709
302.834
302.909
302.978
303.038
303.087
303.12
303.157
303.194
303.229
303.257
303.289
303.321
303.351
303.382
303.411
303.439
303.463
303.489
303.515
303.54
303.566
303.591
303.616
303.64
303.665
303.688
303.711
303.734
303.755
303.777
303.799
303.82
303.84
303.861
303.88
303.9
303.92
303.938
303.957
303.975
303.993
304.011
304.031
304.05
304.067
304.084
304.101
304.119
304.136
304.152
304.167
304.183
304.199
304.215
304.231
304.247
304.263
304.279
304.293
304.305
304.318
304.332
304.346
304.359
304.373
304.386
304.399
304.411
304.424
304.435
304.447
304.458
304.469
304.48
304.491
304.501
304.511
304.52
304.53
304.541
304.551
304.56
304.568
304.576
304.583
304.591
304.599
304.607
304.614
304.62
304.626
304.634
304.639
304.646
304.652
304.658
304.663
304.668
304.673
304.677
304.681
304.685
304.689
304.693
304.697
304.7
304.702
304.705
304.708
304.71
304.712
304.715
304.717
304.718
304.719
304.721
304.722
304.723
304.723
304.724
304.724
304.724
304.723
304.722
304.722
304.72
304.718
304.716
304.713
304.709
304.705
304.7
304.695
304.689
304.682
304.674
304.665
304.655
304.644
304.632
304.619
304.605
304.588
304.571
304.551
304.53
304.506
304.479
304.448
304.41
304.372
304.333
304.288
304.238
304.179
304.116
304.005
303.901
303.767
303.587
302.61
302.72
302.805
302.877
302.939
302.991
303.035
303.076
303.114
303.151
303.184
303.218
303.25
303.282
303.313
303.343
303.372
303.399
303.426
303.452
303.478
303.504
303.53
303.555
303.58
303.604
303.628
303.652
303.675
303.697
303.719
303.741
303.762
303.783
303.804
303.824
303.844
303.864
303.883
303.902
303.92
303.939
303.957
303.976
303.995
304.013
304.03
304.048
304.065
304.082
304.099
304.114
304.13
304.146
304.163
304.179
304.195
304.21
304.226
304.24
304.253
304.267
304.28
304.294
304.308
304.321
304.334
304.347
304.36
304.372
304.384
304.396
304.407
304.418
304.429
304.44
304.45
304.46
304.47
304.48
304.491
304.5
304.509
304.518
304.525
304.533
304.541
304.549
304.557
304.564
304.57
304.577
304.584
304.59
304.596
304.603
304.608
304.613
304.619
304.623
304.628
304.632
304.636
304.64
304.644
304.647
304.651
304.653
304.656
304.658
304.661
304.663
304.665
304.668
304.669
304.67
304.672
304.673
304.674
304.674
304.675
304.675
304.675
304.674
304.673
304.672
304.671
304.669
304.667
304.664
304.66
304.656
304.651
304.646
304.64
304.633
304.625
304.616
304.606
304.595
304.583
304.57
304.556
304.54
304.522
304.502
304.481
304.457
304.43
304.398
304.361
304.323
304.283
304.237
304.185
304.126
304.057
303.95
303.841
303.701
303.504
302.528
302.624
302.707
302.779
302.843
302.898
302.946
302.991
303.032
303.071
303.107
303.142
303.176
303.209
303.241
303.272
303.302
303.33
303.358
303.385
303.412
303.439
303.465
303.491
303.516
303.541
303.565
303.589
303.612
303.635
303.658
303.68
303.701
303.723
303.744
303.764
303.784
303.804
303.824
303.843
303.862
303.881
303.9
303.919
303.937
303.955
303.973
303.991
304.008