/*--------------------------------*- C++ -*----------------------------------*\
| =========                 |                                                 |
| \\      /  F ield         | OpenFOAM: The Open Source CFD Toolbox           |
|  \\    /   O peration     | Version:  2106                                  |
|   \\  /    A nd           | Website:  www.openfoam.com                      |
|    \\/     M anipulation  |                                                 |
\*---------------------------------------------------------------------------*/
FoamFile
{
    version     2.0;
    format      ascii;
    arch        "LSB;label=32;scalar=64";
    class       volVectorField;
    location    "1.6";
    object      U;
}
// * * * * * * * * * * * * * * * * * * * * * * * * * * * * * * * * * * * * * //

dimensions      [0 1 -1 0 0 0 0];

internalField   nonuniform List<vector> 
12013
(
(0.100013 -3.60739e-06 0)
(0.100066 -6.61017e-06 0)
(0.10015 -9.20625e-06 0)
(0.100256 -1.13665e-05 0)
(0.10038 -1.31412e-05 0)
(0.100516 -1.4544e-05 0)
(0.100662 -1.55754e-05 0)
(0.100813 -1.62429e-05 0)
(0.100966 -1.65719e-05 0)
(0.101117 -1.66105e-05 0)
(0.101265 -1.6433e-05 0)
(0.101408 -1.61316e-05 0)
(0.101545 -1.58068e-05 0)
(0.101677 -1.55549e-05 0)
(0.101806 -1.54572e-05 0)
(0.101932 -1.55722e-05 0)
(0.102057 -1.59334e-05 0)
(0.102185 -1.65508e-05 0)
(0.102315 -1.74145e-05 0)
(0.102451 -1.85007e-05 0)
(0.102592 -1.97788e-05 0)
(0.102741 -2.12149e-05 0)
(0.102898 -2.27769e-05 0)
(0.103063 -2.44368e-05 0)
(0.103236 -2.61711e-05 0)
(0.103418 -2.79611e-05 0)
(0.103608 -2.97927e-05 0)
(0.103806 -3.16552e-05 0)
(0.104013 -3.35405e-05 0)
(0.104227 -3.54416e-05 0)
(0.104448 -3.73529e-05 0)
(0.104677 -3.92684e-05 0)
(0.104912 -4.11819e-05 0)
(0.105153 -4.30873e-05 0)
(0.105401 -4.49768e-05 0)
(0.105654 -4.68416e-05 0)
(0.105913 -4.86729e-05 0)
(0.106176 -5.04598e-05 0)
(0.106443 -5.21902e-05 0)
(0.106713 -5.38511e-05 0)
(0.106987 -5.54271e-05 0)
(0.107263 -5.69022e-05 0)
(0.107541 -5.82577e-05 0)
(0.107819 -5.94735e-05 0)
(0.108098 -6.05268e-05 0)
(0.108376 -6.13911e-05 0)
(0.108652 -6.20384e-05 0)
(0.108926 -6.24356e-05 0)
(0.109196 -6.25465e-05 0)
(0.109461 -6.23287e-05 0)
(0.10972 -6.17343e-05 0)
(0.109971 -6.07087e-05 0)
(0.110214 -5.91886e-05 0)
(0.110446 -5.71005e-05 0)
(0.110665 -5.43591e-05 0)
(0.11087 -5.08642e-05 0)
(0.111057 -4.64974e-05 0)
(0.111226 -4.11181e-05 0)
(0.111372 -3.45579e-05 0)
(0.111493 -2.66138e-05 0)
(0.111584 -1.7039e-05 0)
(0.111641 -5.52996e-06 0)
(0.11166 8.29483e-06 0)
(0.111633 2.49217e-05 0)
(0.111555 4.49669e-05 0)
(0.111415 6.92253e-05 0)
(0.111204 9.87407e-05 0)
(0.110908 0.000134907 0)
(0.110512 0.000179623 0)
(0.109992 0.000235528 0)
(0.109323 0.000306368 0)
(0.108466 0.000397604 0)
(0.107372 0.000517384 0)
(0.105972 0.000678216 0)
(0.104164 0.000899831 0)
(0.101803 0.00121423 0)
(0.09867 0.00167478 0)
(0.0944102 0.00237529 0)
(0.0884595 0.00350894 0)
(0.0801145 0.00562142 0)
(0.0706503 0.0111861 0)
(0.100012 -1.10322e-05 0)
(0.100065 -2.02818e-05 0)
(0.100149 -2.82572e-05 0)
(0.100255 -3.48889e-05 0)
(0.100378 -4.03373e-05 0)
(0.100515 -4.4644e-05 0)
(0.10066 -4.78106e-05 0)
(0.100811 -4.98606e-05 0)
(0.100964 -5.08702e-05 0)
(0.101115 -5.09884e-05 0)
(0.101263 -5.04419e-05 0)
(0.101405 -4.95139e-05 0)
(0.101543 -4.8513e-05 0)
(0.101675 -4.77347e-05 0)
(0.101803 -4.74284e-05 0)
(0.101928 -4.77745e-05 0)
(0.102054 -4.8876e-05 0)
(0.102181 -5.07629e-05 0)
(0.102311 -5.34054e-05 0)
(0.102446 -5.67312e-05 0)
(0.102587 -6.06452e-05 0)
(0.102735 -6.5044e-05 0)
(0.102891 -6.98294e-05 0)
(0.103055 -7.49148e-05 0)
(0.103227 -8.0228e-05 0)
(0.103408 -8.57116e-05 0)
(0.103597 -9.13223e-05 0)
(0.103794 -9.70273e-05 0)
(0.103999 -0.000102801 0)
(0.104212 -0.000108624 0)
(0.104432 -0.000114476 0)
(0.104659 -0.00012034 0)
(0.104893 -0.000126198 0)
(0.105133 -0.00013203 0)
(0.105379 -0.000137811 0)
(0.105631 -0.000143517 0)
(0.105887 -0.000149119 0)
(0.106149 -0.000154583 0)
(0.106414 -0.000159873 0)
(0.106683 -0.000164949 0)
(0.106954 -0.000169764 0)
(0.107228 -0.000174268 0)
(0.107504 -0.000178405 0)
(0.10778 -0.000182112 0)
(0.108056 -0.000185319 0)
(0.108332 -0.000187947 0)
(0.108606 -0.000189908 0)
(0.108877 -0.000191103 0)
(0.109144 -0.000191418 0)
(0.109406 -0.000190726 0)
(0.109663 -0.000188881 0)
(0.109912 -0.000185714 0)
(0.110151 -0.000181033 0)
(0.11038 -0.000174614 0)
(0.110597 -0.000166197 0)
(0.110799 -0.000155474 0)
(0.110984 -0.000142088 0)
(0.11115 -0.000125609 0)
(0.111294 -0.000105527 0)
(0.111413 -8.12237e-05 0)
(0.111502 -5.19519e-05 0)
(0.111559 -1.67913e-05 0)
(0.111577 2.54093e-05 0)
(0.111551 7.61068e-05 0)
(0.111475 0.000137146 0)
(0.111339 0.000210899 0)
(0.111134 0.000300464 0)
(0.110848 0.000409959 0)
(0.110466 0.000544948 0)
(0.109969 0.000713096 0)
(0.109331 0.000925173 0)
(0.108523 0.00119664 0)
(0.107504 0.00155017 0)
(0.106217 0.00201975 0)
(0.104591 0.00265735 0)
(0.102529 0.00354361 0)
(0.099901 0.00480418 0)
(0.0965366 0.00663363 0)
(0.0922381 0.00932977 0)
(0.0870487 0.013269 0)
(0.0825534 0.0184042 0)
(0.100012 -1.88148e-05 0)
(0.100064 -3.48433e-05 0)
(0.100147 -4.85827e-05 0)
(0.100253 -6.00037e-05 0)
(0.100376 -6.93862e-05 0)
(0.100512 -7.68026e-05 0)
(0.100657 -8.22564e-05 0)
(0.100808 -8.57886e-05 0)
(0.10096 -8.75277e-05 0)
(0.101111 -8.77309e-05 0)
(0.101258 -8.67858e-05 0)
(0.101401 -8.51798e-05 0)
(0.101538 -8.34432e-05 0)
(0.101669 -8.20846e-05 0)
(0.101797 -8.15332e-05 0)
(0.101922 -8.21004e-05 0)
(0.102047 -8.39645e-05 0)
(0.102173 -8.71778e-05 0)
(0.102302 -9.1689e-05 0)
(0.102436 -9.73754e-05 0)
(0.102576 -0.000104073 0)
(0.102723 -0.000111604 0)
(0.102877 -0.0001198 0)
(0.10304 -0.000128511 0)
(0.10321 -0.000137613 0)
(0.103389 -0.000147006 0)
(0.103576 -0.000156617 0)
(0.103771 -0.000166388 0)
(0.103974 -0.000176275 0)
(0.104185 -0.000186242 0)
(0.104402 -0.000196258 0)
(0.104627 -0.000206292 0)
(0.104858 -0.000216312 0)
(0.105095 -0.000226282 0)
(0.105338 -0.000236164 0)
(0.105586 -0.000245912 0)
(0.105839 -0.000255477 0)
(0.106097 -0.000264801 0)
(0.106358 -0.000273823 0)
(0.106623 -0.000282471 0)
(0.106891 -0.000290668 0)
(0.107161 -0.000298327 0)
(0.107432 -0.000305352 0)
(0.107703 -0.000311634 0)
(0.107975 -0.000317053 0)
(0.108246 -0.000321475 0)
(0.108515 -0.000324749 0)
(0.108781 -0.000326704 0)
(0.109043 -0.000327148 0)
(0.1093 -0.000325861 0)
(0.109551 -0.000322595 0)
(0.109794 -0.000317065 0)
(0.110028 -0.000308941 0)
(0.110252 -0.000297843 0)
(0.110463 -0.00028333 0)
(0.110659 -0.000264884 0)
(0.110839 -0.000241897 0)
(0.111 -0.000213648 0)
(0.11114 -0.000179275 0)
(0.111254 -0.000137745 0)
(0.11134 -8.78053e-05 0)
(0.111394 -2.79224e-05 0)
(0.111411 4.3811e-05 0)
(0.111385 0.000129788 0)
(0.111311 0.000233024 0)
(0.111182 0.000357366 0)
(0.110987 0.000507794 0)
(0.110717 0.000690846 0)
(0.11036 0.00091523 0)
(0.109899 0.00119273 0)
(0.109316 0.00153954 0)
(0.108588 0.00197827 0)
(0.107688 0.00254093 0)
(0.106583 0.00327335 0)
(0.105235 0.00424157 0)
(0.103607 0.00554021 0)
(0.101668 0.00730108 0)
(0.0994163 0.00969557 0)
(0.0969298 0.0129143 0)
(0.0945188 0.0170335 0)
(0.0930468 0.021424 0)
(0.100011 -2.69177e-05 0)
(0.100062 -5.02891e-05 0)
(0.100145 -7.01908e-05 0)
(0.10025 -8.67485e-05 0)
(0.100373 -0.000100347 0)
(0.100508 -0.000111095 0)
(0.100653 -0.000119003 0)
(0.100803 -0.000124127 0)
(0.100955 -0.000126653 0)
(0.101105 -0.000126952 0)
(0.101252 -0.00012558 0)
(0.101394 -0.000123242 0)
(0.101531 -0.000120702 0)
(0.101662 -0.000118698 0)
(0.101789 -0.00011785 0)
(0.101914 -0.000118609 0)
(0.102038 -0.000121237 0)
(0.102163 -0.000125811 0)
(0.10229 -0.000132259 0)
(0.102423 -0.000140405 0)
(0.102561 -0.000150012 0)
(0.102706 -0.000160825 0)
(0.102858 -0.000172598 0)
(0.103018 -0.000185116 0)
(0.103187 -0.000198197 0)
(0.103363 -0.000211698 0)
(0.103547 -0.00022551 0)
(0.103739 -0.000239549 0)
(0.103938 -0.000253752 0)
(0.104145 -0.000268065 0)
(0.104359 -0.000282442 0)
(0.10458 -0.000296839 0)
(0.104807 -0.000311208 0)
(0.10504 -0.000325499 0)
(0.105278 -0.000339653 0)
(0.105521 -0.000353607 0)
(0.10577 -0.000367287 0)
(0.106022 -0.000380611 0)
(0.106278 -0.000393489 0)
(0.106537 -0.00040582 0)
(0.106799 -0.00041749 0)
(0.107063 -0.000428375 0)
(0.107327 -0.000438334 0)
(0.107592 -0.000447213 0)
(0.107857 -0.000454838 0)
(0.108121 -0.000461017 0)
(0.108383 -0.000465532 0)
(0.108641 -0.000468139 0)
(0.108896 -0.000468563 0)
(0.109145 -0.00046649 0)
(0.109388 -0.000461564 0)
(0.109623 -0.000453378 0)
(0.109849 -0.000441466 0)
(0.110065 -0.000425289 0)
(0.110268 -0.000404219 0)
(0.110457 -0.000377528 0)
(0.110629 -0.000344358 0)
(0.110783 -0.000303698 0)
(0.110915 -0.000254344 0)
(0.111024 -0.000194857 0)
(0.111105 -0.000123501 0)
(0.111156 -3.81628e-05 0)
(0.111171 6.37619e-05 0)
(0.111147 0.000185508 0)
(0.111077 0.000331115 0)
(0.110957 0.00050568 0)
(0.110778 0.000715708 0)
(0.110532 0.000969597 0)
(0.11021 0.0012783 0)
(0.109802 0.00165628 0)
(0.109294 0.00212278 0)
(0.108675 0.00270369 0)
(0.107932 0.00343389 0)
(0.107053 0.00436046 0)
(0.106033 0.00554608 0)
(0.104881 0.00707163 0)
(0.10363 0.00903386 0)
(0.102362 0.011529 0)
(0.101235 0.0146032 0)
(0.100517 0.018119 0)
(0.100558 0.0214401 0)
(0.10001 -3.53674e-05 0)
(0.100061 -6.6628e-05 0)
(0.100143 -9.31091e-05 0)
(0.100247 -0.000115174 0)
(0.100369 -0.000133291 0)
(0.100503 -0.000147613 0)
(0.100647 -0.000158157 0)
(0.100797 -0.000164998 0)
(0.100948 -0.000168382 0)
(0.101098 -0.000168796 0)
(0.101245 -0.000166976 0)
(0.101386 -0.000163852 0)
(0.101522 -0.000160438 0)
(0.101653 -0.000157711 0)
(0.10178 -0.000156498 0)
(0.101903 -0.000157401 0)
(0.102026 -0.00016077 0)
(0.10215 -0.000166713 0)
(0.102276 -0.000175138 0)
(0.102407 -0.000185815 0)
(0.102543 -0.000198431 0)
(0.102685 -0.000212649 0)
(0.102835 -0.000228144 0)
(0.102992 -0.000244626 0)
(0.103157 -0.000261854 0)
(0.10333 -0.000279638 0)
(0.10351 -0.000297829 0)
(0.103698 -0.000316316 0)
(0.103893 -0.000335011 0)
(0.104096 -0.000353844 0)
(0.104305 -0.000372751 0)
(0.10452 -0.000391672 0)
(0.104742 -0.000410544 0)
(0.104969 -0.000429298 0)
(0.105201 -0.000447858 0)
(0.105439 -0.000466136 0)
(0.105681 -0.000484037 0)
(0.105926 -0.000501451 0)
(0.106175 -0.000518257 0)
(0.106427 -0.000534322 0)
(0.106681 -0.000549496 0)
(0.106937 -0.000563613 0)
(0.107193 -0.000576488 0)
(0.10745 -0.000587917 0)
(0.107706 -0.000597671 0)
(0.10796 -0.000605497 0)
(0.108213 -0.000611108 0)
(0.108462 -0.000614184 0)
(0.108706 -0.000614364 0)
(0.108946 -0.000611239 0)
(0.109179 -0.000604345 0)
(0.109404 -0.000593153 0)
(0.10962 -0.000577057 0)
(0.109825 -0.00055536 0)
(0.110018 -0.000527254 0)
(0.110197 -0.000491804 0)
(0.11036 -0.000447912 0)
(0.110505 -0.000394291 0)
(0.110629 -0.000329419 0)
(0.110731 -0.000251485 0)
(0.110807 -0.000158317 0)
(0.110854 -4.72968e-05 0)
(0.110869 8.47676e-05 0)
(0.110847 0.000241789 0)
(0.110785 0.000428591 0)
(0.110678 0.000651171 0)
(0.110521 0.000917038 0)
(0.110307 0.00123567 0)
(0.110032 0.00161911 0)
(0.10969 0.00208273 0)
(0.109275 0.00264623 0)
(0.108784 0.00333482 0)
(0.108217 0.00418061 0)
(0.107581 0.00522377 0)
(0.10689 0.006513 0)
(0.10618 0.00810333 0)
(0.10551 0.010048 0)
(0.104976 0.0123774 0)
(0.104717 0.015055 0)
(0.104897 0.0178961 0)
(0.105633 0.0204528 0)
(0.10001 -4.41848e-05 0)
(0.10006 -8.38681e-05 0)
(0.10014 -0.000117364 0)
(0.100243 -0.000145323 0)
(0.100364 -0.000168284 0)
(0.100498 -0.000186441 0)
(0.100641 -0.000199823 0)
(0.100789 -0.000208526 0)
(0.10094 -0.000212855 0)
(0.101089 -0.000213418 0)
(0.101235 -0.000211137 0)
(0.101377 -0.000207178 0)
(0.101512 -0.000202815 0)
(0.101643 -0.000199279 0)
(0.101769 -0.000197615 0)
(0.101891 -0.000198588 0)
(0.102013 -0.000202647 0)
(0.102135 -0.000209936 0)
(0.10226 -0.000220346 0)
(0.102388 -0.000233591 0)
(0.102522 -0.000249283 0)
(0.102661 -0.000266999 0)
(0.102808 -0.000286327 0)
(0.102961 -0.000306902 0)
(0.103122 -0.000328419 0)
(0.103291 -0.000350632 0)
(0.103467 -0.000373353 0)
(0.10365 -0.000396437 0)
(0.10384 -0.000419772 0)
(0.104036 -0.000443266 0)
(0.10424 -0.000466837 0)
(0.104449 -0.000490407 0)
(0.104664 -0.000513895 0)
(0.104885 -0.000537213 0)
(0.10511 -0.000560264 0)
(0.10534 -0.000582937 0)
(0.105574 -0.000605111 0)
(0.105811 -0.000626648 0)
(0.106052 -0.000647396 0)
(0.106295 -0.000667184 0)
(0.106539 -0.000685827 0)
(0.106785 -0.000703114 0)
(0.107032 -0.000718816 0)
(0.107278 -0.000732675 0)
(0.107524 -0.000744407 0)
(0.107767 -0.000753694 0)
(0.108008 -0.000760181 0)
(0.108246 -0.000763471 0)
(0.108479 -0.000763115 0)
(0.108707 -0.000758611 0)
(0.108927 -0.000749386 0)
(0.10914 -0.000734791 0)
(0.109344 -0.000714086 0)
(0.109538 -0.000686422 0)
(0.109719 -0.000650822 0)
(0.109887 -0.000606155 0)
(0.110039 -0.000551109 0)
(0.110174 -0.00048415 0)
(0.11029 -0.000403476 0)
(0.110385 -0.000306962 0)
(0.110456 -0.000192086 0)
(0.1105 -5.58335e-05 0)
(0.110516 0.00010541 0)
(0.110499 0.000296007 0)
(0.110448 0.000521252 0)
(0.110359 0.000787593 0)
(0.110228 0.00110292 0)
(0.110054 0.00147692 0)
(0.109835 0.00192147 0)
(0.109568 0.0024512 0)
(0.109255 0.00308393 0)
(0.108901 0.00384125 0)
(0.108513 0.00474875 0)
(0.108108 0.00583575 0)
(0.107712 0.00713373 0)
(0.107368 0.00867225 0)
(0.107135 0.0104702 0)
(0.107093 0.0125191 0)
(0.107336 0.0147563 0)
(0.10795 0.017027 0)
(0.108955 0.0190545 0)
(0.100009 -5.33863e-05 0)
(0.100058 -0.000102018 0)
(0.100138 -0.000142981 0)
(0.100239 -0.000177236 0)
(0.100359 -0.000205384 0)
(0.100491 -0.000227659 0)
(0.100633 -0.000244105 0)
(0.100781 -0.000254834 0)
(0.10093 -0.000260216 0)
(0.101079 -0.000260981 0)
(0.101225 -0.000258241 0)
(0.101365 -0.000253404 0)
(0.101501 -0.000248018 0)
(0.101631 -0.000243577 0)
(0.101756 -0.000241358 0)
(0.101878 -0.000242303 0)
(0.101999 -0.000246968 0)
(0.102119 -0.000255541 0)
(0.102242 -0.000267903 0)
(0.102368 -0.000283715 0)
(0.102499 -0.000302511 0)
(0.102635 -0.000323778 0)
(0.102778 -0.000347016 0)
(0.102927 -0.000371779 0)
(0.103083 -0.000397689 0)
(0.103247 -0.000424447 0)
(0.103417 -0.000451815 0)
(0.103595 -0.000479613 0)
(0.103779 -0.0005077 0)
(0.103969 -0.00053596 0)
(0.104166 -0.000564289 0)
(0.104368 -0.000592591 0)
(0.104576 -0.000620763 0)
(0.104788 -0.000648698 0)
(0.105005 -0.000676275 0)
(0.105227 -0.000703359 0)
(0.105451 -0.000729801 0)
(0.105679 -0.000755433 0)
(0.10591 -0.00078007 0)
(0.106143 -0.000803505 0)
(0.106377 -0.000825512 0)
(0.106612 -0.000845837 0)
(0.106847 -0.000864202 0)
(0.107081 -0.000880297 0)
(0.107315 -0.000893781 0)
(0.107546 -0.000904271 0)
(0.107774 -0.000911344 0)
(0.107999 -0.000914524 0)
(0.108218 -0.000913282 0)
(0.108433 -0.000907017 0)
(0.10864 -0.000895058 0)
(0.108839 -0.000876642 0)
(0.10903 -0.000850903 0)
(0.10921 -0.000816854 0)
(0.109378 -0.000773365 0)
(0.109534 -0.000719139 0)
(0.109675 -0.000652678 0)
(0.1098 -0.000572249 0)
(0.109907 -0.000475832 0)
(0.109995 -0.00036107 0)
(0.110061 -0.000225198 0)
(0.110104 -6.49619e-05 0)
(0.110122 0.000123474 0)
(0.110113 0.000344655 0)
(0.110076 0.000603981 0)
(0.110009 0.000907871 0)
(0.109911 0.00126396 0)
(0.109781 0.00168129 0)
(0.109622 0.00217057 0)
(0.109435 0.0027443 0)
(0.109226 0.00341696 0)
(0.109003 0.00420485 0)
(0.108781 0.00512572 0)
(0.108578 0.00619764 0)
(0.108424 0.00743681 0)
(0.108356 0.00885361 0)
(0.108423 0.0104459 0)
(0.108681 0.012189 0)
(0.109186 0.0140223 0)
(0.109974 0.0158358 0)
(0.111035 0.0174684 0)
(0.100008 -6.29875e-05 0)
(0.100057 -0.000121089 0)
(0.100135 -0.000169982 0)
(0.100235 -0.000210947 0)
(0.100353 -0.000244644 0)
(0.100484 -0.000271342 0)
(0.100624 -0.000291097 0)
(0.100771 -0.000304044 0)
(0.100919 -0.000310612 0)
(0.101067 -0.000311655 0)
(0.101212 -0.000308476 0)
(0.101353 -0.000302733 0)
(0.101488 -0.00029625 0)
(0.101617 -0.0002908 0)
(0.101742 -0.000287905 0)
(0.101863 -0.000288694 0)
(0.101983 -0.000293846 0)
(0.102102 -0.000303602 0)
(0.102222 -0.00031784 0)
(0.102346 -0.00033617 0)
(0.102473 -0.000358051 0)
(0.102606 -0.000382878 0)
(0.102744 -0.00041006 0)
(0.102889 -0.000439063 0)
(0.103041 -0.000469435 0)
(0.103199 -0.000500812 0)
(0.103363 -0.000532907 0)
(0.103534 -0.000565497 0)
(0.103711 -0.000598409 0)
(0.103895 -0.000631497 0)
(0.104084 -0.000664636 0)
(0.104278 -0.000697706 0)
(0.104477 -0.000730582 0)
(0.104681 -0.000763134 0)
(0.104889 -0.000795216 0)
(0.1051 -0.000826668 0)
(0.105315 -0.000857311 0)
(0.105532 -0.000886945 0)
(0.105752 -0.000915351 0)
(0.105973 -0.000942286 0)
(0.106195 -0.00096748 0)
(0.106418 -0.000990637 0)
(0.10664 -0.00101143 0)
(0.106862 -0.00102949 0)
(0.107081 -0.00104443 0)
(0.107299 -0.0010558 0)
(0.107513 -0.0010631 0)
(0.107723 -0.00106579 0)
(0.107928 -0.00106326 0)
(0.108128 -0.00105482 0)
(0.108321 -0.00103971 0)
(0.108506 -0.00101706 0)
(0.108682 -0.000985895 0)
(0.108848 -0.00094511 0)
(0.109003 -0.000893452 0)
(0.109146 -0.00082949 0)
(0.109275 -0.000751589 0)
(0.109389 -0.000657874 0)
(0.109488 -0.000546191 0)
(0.109569 -0.000414051 0)
(0.109632 -0.000258583 0)
(0.109676 -7.64633e-05 0)
(0.109698 0.000136141 0)
(0.109699 0.000383671 0)
(0.109679 0.000671273 0)
(0.109637 0.00100489 0)
(0.109573 0.00139135 0)
(0.109491 0.00183842 0)
(0.109393 0.00235487 0)
(0.109284 0.00295038 0)
(0.109173 0.00363538 0)
(0.109069 0.00442066 0)
(0.108987 0.00531657 0)
(0.108948 0.00633183 0)
(0.108976 0.00747154 0)
(0.1091 0.00873424 0)
(0.109356 0.0101079 0)
(0.109777 0.011565 0)
(0.110394 0.013057 0)
(0.111219 0.0145117 0)
(0.112234 0.0158376 0)
(0.100008 -7.30031e-05 0)
(0.100055 -0.000141089 0)
(0.100132 -0.000198388 0)
(0.10023 -0.000246487 0)
(0.100346 -0.00028611 0)
(0.100476 -0.000317553 0)
(0.100615 -0.000340888 0)
(0.100759 -0.000356271 0)
(0.100907 -0.000364186 0)
(0.101054 -0.00036561 0)
(0.101198 -0.000362036 0)
(0.101338 -0.000355372 0)
(0.101473 -0.000347727 0)
(0.101602 -0.000341161 0)
(0.101727 -0.00033745 0)
(0.101847 -0.000337928 0)
(0.101965 -0.000343409 0)
(0.102083 -0.000354201 0)
(0.102201 -0.000370187 0)
(0.102322 -0.000390936 0)
(0.102446 -0.000415831 0)
(0.102575 -0.000444176 0)
(0.102709 -0.000475286 0)
(0.102848 -0.000508536 0)
(0.102994 -0.000543392 0)
(0.103146 -0.00057942 0)
(0.103304 -0.000616277 0)
(0.103468 -0.000653694 0)
(0.103638 -0.000691457 0)
(0.103813 -0.000729392 0)
(0.103994 -0.000767343 0)
(0.104179 -0.000805166 0)
(0.104369 -0.000842712 0)
(0.104563 -0.000879824 0)
(0.104761 -0.000916331 0)
(0.104962 -0.000952045 0)
(0.105165 -0.000986755 0)
(0.105371 -0.00102023 0)
(0.105579 -0.00105222 0)
(0.105788 -0.00108243 0)
(0.105997 -0.00111057 0)
(0.106206 -0.00113627 0)
(0.106415 -0.00115918 0)
(0.106622 -0.00117888 0)
(0.106827 -0.00119491 0)
(0.107029 -0.00120676 0)
(0.107229 -0.00121389 0)
(0.107423 -0.00121567 0)
(0.107613 -0.00121142 0)
(0.107797 -0.00120039 0)
(0.107974 -0.00118171 0)
(0.108144 -0.00115445 0)
(0.108305 -0.00111753 0)
(0.108457 -0.00106977 0)
(0.108598 -0.00100982 0)
(0.108728 -0.000936168 0)
(0.108846 -0.000847091 0)
(0.10895 -0.000740652 0)
(0.109041 -0.000614648 0)
(0.109117 -0.000466581 0)
(0.109178 -0.000293614 0)
(0.109223 -9.25351e-05 0)
(0.109252 0.000140269 0)
(0.109265 0.000408872 0)
(0.109263 0.000717862 0)
(0.109247 0.00107235 0)
(0.109219 0.00147797 0)
(0.109183 0.00194083 0)
(0.109143 0.00246742 0)
(0.109106 0.00306443 0)
(0.10908 0.00373839 0)
(0.109075 0.00449519 0)
(0.109106 0.00533936 0)
(0.109189 0.00627297 0)
(0.109343 0.00729432 0)
(0.10959 0.00839617 0)
(0.10995 0.00956369 0)
(0.110445 0.0107725 0)
(0.111088 0.0119874 0)
(0.11188 0.0131629 0)
(0.112807 0.0142473 0)
(0.100007 -8.34457e-05 0)
(0.100054 -0.000162026 0)
(0.100129 -0.000228211 0)
(0.100225 -0.000283875 0)
(0.100339 -0.000329813 0)
(0.100467 -0.000366343 0)
(0.100604 -0.000393552 0)
(0.100747 -0.000411613 0)
(0.100893 -0.000421068 0)
(0.101039 -0.000423005 0)
(0.101183 -0.000419108 0)
(0.101322 -0.000411529 0)
(0.101456 -0.000402666 0)
(0.101585 -0.000394871 0)
(0.101709 -0.000390189 0)
(0.101829 -0.000390173 0)
(0.101946 -0.000395787 0)
(0.102061 -0.000407421 0)
(0.102177 -0.000424975 0)
(0.102295 -0.000447986 0)
(0.102416 -0.000475766 0)
(0.10254 -0.000507532 0)
(0.102669 -0.000542498 0)
(0.102804 -0.000579947 0)
(0.102943 -0.000619257 0)
(0.103089 -0.000659918 0)
(0.10324 -0.000701523 0)
(0.103396 -0.000743751 0)
(0.103558 -0.000786344 0)
(0.103725 -0.00082909 0)
(0.103896 -0.000871803 0)
(0.104072 -0.000914309 0)
(0.104252 -0.000956431 0)
(0.104436 -0.000997987 0)
(0.104623 -0.00103877 0)
(0.104812 -0.00107858 0)
(0.105004 -0.00111716 0)
(0.105197 -0.00115424 0)
(0.105392 -0.00118955 0)
(0.105587 -0.00122275 0)
(0.105782 -0.00125351 0)
(0.105977 -0.00128142 0)
(0.106171 -0.00130607 0)
(0.106363 -0.001327 0)
(0.106553 -0.00134369 0)
(0.10674 -0.0013556 0)
(0.106923 -0.0013621 0)
(0.107102 -0.00136253 0)
(0.107275 -0.00135613 0)
(0.107443 -0.00134208 0)
(0.107605 -0.00131947 0)
(0.107759 -0.00128729 0)
(0.107904 -0.00124441 0)
(0.108042 -0.00118959 0)
(0.108169 -0.00112143 0)
(0.108287 -0.00103838 0)
(0.108393 -0.000938726 0)
(0.108489 -0.000820526 0)
(0.108573 -0.000681633 0)
(0.108644 -0.000519652 0)
(0.108704 -0.000331926 0)
(0.108752 -0.000115516 0)
(0.108788 0.000132785 0)
(0.108814 0.00041648 0)
(0.108831 0.000739374 0)
(0.108841 0.00110553 0)
(0.108847 0.00151921 0)
(0.108854 0.00198473 0)
(0.108866 0.00250637 0)
(0.108889 0.00308806 0)
(0.108933 0.00373305 0)
(0.109006 0.00444352 0)
(0.10912 0.00521994 0)
(0.109287 0.00606041 0)
(0.109521 0.00695984 0)
(0.109835 0.0079091 0)
(0.110244 0.00889425 0)
(0.110756 0.00989606 0)
(0.111378 0.0108902 0)
(0.112106 0.0118483 0)
(0.112928 0.0127412 0)
(0.100006 -9.43234e-05 0)
(0.100052 -0.000183898 0)
(0.100125 -0.000259453 0)
(0.10022 -0.000323119 0)
(0.100332 -0.000375768 0)
(0.100457 -0.000417741 0)
(0.100592 -0.000449137 0)
(0.100733 -0.000470146 0)
(0.100877 -0.000481358 0)
(0.101022 -0.000483973 0)
(0.101164 -0.00047985 0)
(0.101303 -0.000471385 0)
(0.101437 -0.00046126 0)
(0.101565 -0.000452125 0)
(0.101688 -0.000446306 0)
(0.101807 -0.000445586 0)
(0.101923 -0.000451098 0)
(0.102037 -0.000463332 0)
(0.102151 -0.000482219 0)
(0.102265 -0.000507275 0)
(0.102382 -0.000537751 0)
(0.102502 -0.000572776 0)
(0.102626 -0.000611467 0)
(0.102754 -0.000653007 0)
(0.102888 -0.000696683 0)
(0.103026 -0.000741901 0)
(0.103169 -0.000788185 0)
(0.103318 -0.000835151 0)
(0.103471 -0.000882495 0)
(0.103629 -0.00092996 0)
(0.103791 -0.000977325 0)
(0.103957 -0.00102438 0)
(0.104126 -0.00107093 0)
(0.104298 -0.00111674 0)
(0.104473 -0.0011616 0)
(0.10465 -0.00120525 0)
(0.104829 -0.00124743 0)
(0.10501 -0.00128783 0)
(0.10519 -0.00132612 0)
(0.105372 -0.00136196 0)
(0.105552 -0.00139494 0)
(0.105732 -0.00142464 0)
(0.105911 -0.0014506 0)
(0.106087 -0.0014723 0)
(0.106261 -0.0014892 0)
(0.106431 -0.00150069 0)
(0.106598 -0.0015061 0)
(0.10676 -0.00150472 0)
(0.106917 -0.00149575 0)
(0.107069 -0.00147832 0)
(0.107214 -0.00145147 0)
(0.107352 -0.00141417 0)
(0.107483 -0.00136525 0)
(0.107606 -0.00130347 0)
(0.10772 -0.00122742 0)
(0.107826 -0.00113558 0)
(0.107922 -0.00102628 0)
(0.108009 -0.000897679 0)
(0.108087 -0.000747779 0)
(0.108155 -0.000574394 0)
(0.108215 -0.000375162 0)
(0.108266 -0.000147552 0)
(0.10831 0.00011111 0)
(0.108349 0.000403622 0)
(0.108384 0.000732899 0)
(0.108418 0.00110188 0)
(0.108455 0.00151346 0)
(0.108498 0.0019703 0)
(0.108553 0.00247472 0)
(0.108625 0.00302843 0)
(0.108721 0.00363228 0)
(0.10885 0.00428593 0)
(0.109019 0.00498746 0)
(0.109238 0.005733 0)
(0.109515 0.00651635 0)
(0.10986 0.00732868 0)
(0.110278 0.00815837 0)
(0.110775 0.00899112 0)
(0.111351 0.0098105 0)
(0.112003 0.010599 0)
(0.112721 0.01134 0)
(0.100005 -0.000105639 0)
(0.10005 -0.000206698 0)
(0.100122 -0.000292101 0)
(0.100214 -0.000364204 0)
(0.100323 -0.000423966 0)
(0.100446 -0.000471746 0)
(0.100578 -0.000507657 0)
(0.100717 -0.000531903 0)
(0.10086 -0.000545117 0)
(0.101003 -0.000548599 0)
(0.101144 -0.000544374 0)
(0.101281 -0.000535071 0)
(0.101414 -0.000523654 0)
(0.101542 -0.000513073 0)
(0.101664 -0.00050594 0)
(0.101782 -0.000504284 0)
(0.101896 -0.000509426 0)
(0.102008 -0.000521971 0)
(0.102119 -0.000541903 0)
(0.10223 -0.000568727 0)
(0.102343 -0.000601645 0)
(0.102458 -0.000639703 0)
(0.102577 -0.00068192 0)
(0.102699 -0.000727378 0)
(0.102826 -0.000775266 0)
(0.102957 -0.000824901 0)
(0.103092 -0.000875729 0)
(0.103232 -0.000927299 0)
(0.103376 -0.00097925 0)
(0.103524 -0.00103128 0)
(0.103676 -0.00108312 0)
(0.103831 -0.00113453 0)
(0.103989 -0.00118527 0)
(0.104149 -0.0012351 0)
(0.104312 -0.00128374 0)
(0.104476 -0.00133093 0)
(0.104642 -0.00137637 0)
(0.104808 -0.0014197 0)
(0.104975 -0.00146059 0)
(0.105141 -0.00149862 0)
(0.105307 -0.00153338 0)
(0.105471 -0.00156441 0)
(0.105633 -0.00159119 0)
(0.105793 -0.00161318 0)
(0.105951 -0.00162978 0)
(0.106105 -0.00164036 0)
(0.106255 -0.00164422 0)
(0.1064 -0.0016406 0)
(0.10654 -0.00162868 0)
(0.106675 -0.00160756 0)
(0.106805 -0.00157628 0)
(0.106927 -0.00153378 0)
(0.107043 -0.00147893 0)
(0.107152 -0.00141048 0)
(0.107254 -0.00132711 0)
(0.107348 -0.00122736 0)
(0.107435 -0.00110968 0)
(0.107514 -0.000972402 0)
(0.107586 -0.000813749 0)
(0.107652 -0.000631833 0)
(0.107712 -0.000424678 0)
(0.107767 -0.000190238 0)
(0.107819 7.35607e-05 0)
(0.107869 0.000368765 0)
(0.10792 0.000697389 0)
(0.107975 0.00106132 0)
(0.108037 0.0014622 0)
(0.108109 0.00190133 0)
(0.108196 0.00237951 0)
(0.108303 0.00289684 0)
(0.108436 0.0034526 0)
(0.108601 0.00404497 0)
(0.108803 0.00467091 0)
(0.109048 0.00532595 0)
(0.109343 0.00600405 0)
(0.10969 0.00669762 0)
(0.110095 0.0073976 0)
(0.110558 0.00809373 0)
(0.111078 0.00877503 0)
(0.111652 0.00943062 0)
(0.112273 0.0100508 0)
(0.100004 -0.000117386 0)
(0.100049 -0.000230401 0)
(0.100118 -0.000326124 0)
(0.100208 -0.000407093 0)
(0.100314 -0.000474363 0)
(0.100434 -0.000528317 0)
(0.100564 -0.000569077 0)
(0.1007 -0.00059686 0)
(0.10084 -0.000612338 0)
(0.10098 -0.000616896 0)
(0.10112 -0.000612714 0)
(0.101256 -0.000602643 0)
(0.101387 -0.000589918 0)
(0.101514 -0.000577787 0)
(0.101635 -0.000569158 0)
(0.101751 -0.000566317 0)
(0.101864 -0.000570789 0)
(0.101973 -0.000583317 0)
(0.102081 -0.000603953 0)
(0.102189 -0.000632213 0)
(0.102297 -0.000667254 0)
(0.102408 -0.000708049 0)
(0.10252 -0.000753524 0)
(0.102636 -0.000802655 0)
(0.102756 -0.000854529 0)
(0.102879 -0.00090837 0)
(0.103006 -0.000963535 0)
(0.103137 -0.0010195 0)
(0.103271 -0.00107584 0)
(0.103409 -0.00113221 0)
(0.10355 -0.00118828 0)
(0.103693 -0.00124377 0)
(0.103839 -0.00129841 0)
(0.103988 -0.00135192 0)
(0.104137 -0.001404 0)
(0.104288 -0.00145435 0)
(0.10444 -0.00150262 0)
(0.104592 -0.00154846 0)
(0.104743 -0.00159146 0)
(0.104894 -0.00163121 0)
(0.105044 -0.00166725 0)
(0.105192 -0.00169907 0)
(0.105338 -0.00172615 0)
(0.105482 -0.0017479 0)
(0.105622 -0.00176371 0)
(0.105759 -0.0017729 0)
(0.105892 -0.00177475 0)
(0.106021 -0.00176851 0)
(0.106145 -0.00175332 0)
(0.106263 -0.00172831 0)
(0.106377 -0.00169251 0)
(0.106484 -0.0016449 0)
(0.106586 -0.00158438 0)
(0.106681 -0.0015098 0)
(0.106771 -0.00141991 0)
(0.106854 -0.00131339 0)
(0.106932 -0.00118888 0)
(0.107004 -0.00104491 0)
(0.107071 -0.000880012 0)
(0.107135 -0.000692635 0)
(0.107195 -0.000481239 0)
(0.107253 -0.000244294 0)
(0.107312 1.96731e-05 0)
(0.107372 0.000311988 0)
(0.107436 0.000633841 0)
(0.107506 0.000986207 0)
(0.107586 0.00136974 0)
(0.10768 0.0017847 0)
(0.107789 0.00223079 0)
(0.107919 0.00270713 0)
(0.108074 0.00321209 0)
(0.108258 0.0037432 0)
(0.108474 0.00429711 0)
(0.108727 0.0048695 0)
(0.10902 0.00545511 0)
(0.109354 0.00604785 0)
(0.109731 0.00664091 0)
(0.110151 0.00722705 0)
(0.110612 0.00779897 0)
(0.111112 0.00834981 0)
(0.111644 0.00887391 0)
(0.100003 -0.000129551 0)
(0.100047 -0.000254973 0)
(0.100114 -0.000361465 0)
(0.100201 -0.000451714 0)
(0.100305 -0.000526876 0)
(0.100421 -0.000587361 0)
(0.100547 -0.000633301 0)
(0.10068 -0.000664923 0)
(0.100817 -0.00068293 0)
(0.100955 -0.000688783 0)
(0.101092 -0.000684802 0)
(0.101226 -0.000674044 0)
(0.101355 -0.000660004 0)
(0.10148 -0.000646227 0)
(0.101599 -0.000635916 0)
(0.101714 -0.000631628 0)
(0.101824 -0.000635109 0)
(0.101931 -0.000647258 0)
(0.102036 -0.000668215 0)
(0.102139 -0.00069752 0)
(0.102243 -0.000734306 0)
(0.102348 -0.000777476 0)
(0.102455 -0.000825867 0)
(0.102564 -0.000878349 0)
(0.102675 -0.000933907 0)
(0.10279 -0.000991661 0)
(0.102909 -0.00105088 0)
(0.10303 -0.00111095 0)
(0.103154 -0.00117139 0)
(0.103281 -0.00123178 0)
(0.103411 -0.00129175 0)
(0.103542 -0.00135097 0)
(0.103676 -0.00140914 0)
(0.103811 -0.00146592 0)
(0.103947 -0.00152101 0)
(0.104084 -0.00157405 0)
(0.104221 -0.00162469 0)
(0.104358 -0.00167251 0)
(0.104494 -0.00171712 0)
(0.10463 -0.00175804 0)
(0.104763 -0.00179479 0)
(0.104895 -0.00182686 0)
(0.105024 -0.00185369 0)
(0.105151 -0.00187466 0)
(0.105274 -0.00188916 0)
(0.105394 -0.0018965 0)
(0.10551 -0.00189595 0)
(0.105622 -0.00188675 0)
(0.10573 -0.00186807 0)
(0.105832 -0.00183906 0)
(0.10593 -0.0017988 0)
(0.106023 -0.00174632 0)
(0.10611 -0.0016806 0)
(0.106193 -0.0016006 0)
(0.106271 -0.00150521 0)
(0.106344 -0.00139328 0)
(0.106413 -0.00126366 0)
(0.106479 -0.00111516 0)
(0.106542 -0.000946614 0)
(0.106602 -0.000756851 0)
(0.106662 -0.000544764 0)
(0.106723 -0.000309325 0)
(0.106786 -4.96168e-05 0)
(0.106853 0.000235072 0)
(0.106925 0.000545232 0)
(0.107007 0.000881122 0)
(0.107099 0.00124267 0)
(0.107205 0.00162941 0)
(0.107328 0.00204041 0)
(0.10747 0.00247423 0)
(0.107634 0.00292886 0)
(0.107824 0.00340171 0)
(0.108041 0.00388956 0)
(0.108288 0.00438865 0)
(0.108566 0.00489466 0)
(0.108876 0.00540289 0)
(0.109218 0.00590833 0)
(0.109592 0.00640592 0)
(0.109995 0.00689077 0)
(0.110425 0.00735852 0)
(0.110879 0.00780581 0)
(0.100002 -0.000142109 0)
(0.100044 -0.000280356 0)
(0.10011 -0.000398036 0)
(0.100194 -0.000497956 0)
(0.100294 -0.000581372 0)
(0.100407 -0.000648726 0)
(0.100529 -0.00070016 0)
(0.100658 -0.00073591 0)
(0.100791 -0.000756703 0)
(0.100926 -0.000764066 0)
(0.101059 -0.000760443 0)
(0.101191 -0.00074908 0)
(0.101318 -0.000733724 0)
(0.10144 -0.000718206 0)
(0.101557 -0.000706028 0)
(0.101669 -0.000700025 0)
(0.101776 -0.000702176 0)
(0.10188 -0.000713557 0)
(0.101981 -0.000734414 0)