/*--------------------------------*- C++ -*----------------------------------*\
| =========                 |                                                 |
| \\      /  F ield         | OpenFOAM: The Open Source CFD Toolbox           |
|  \\    /   O peration     | Version:  2106                                  |
|   \\  /    A nd           | Website:  www.openfoam.com                      |
|    \\/     M anipulation  |                                                 |
\*---------------------------------------------------------------------------*/
FoamFile
{
    version     2.0;
    format      ascii;
    arch        "LSB;label=32;scalar=64";
    class       surfaceScalarField;
    location    "3.6";
    object      phi;
}
// * * * * * * * * * * * * * * * * * * * * * * * * * * * * * * * * * * * * * //

dimensions      [1 0 -1 0 0 0 0];

oriented        oriented;

internalField   nonuniform List<scalar> 
23692
(
9.31596e-05
-8.01556e-08
9.33047e-05
-1.45023e-07
9.35073e-05
-2.02423e-07
9.376e-05
-2.52571e-07
9.40573e-05
-2.97157e-07
9.43948e-05
-3.37226e-07
9.47685e-05
-3.73473e-07
9.51752e-05
-4.0646e-07
9.56122e-05
-4.36623e-07
9.60769e-05
-4.64303e-07
9.65671e-05
-4.89785e-07
9.70808e-05
-5.13299e-07
9.76163e-05
-5.35033e-07
9.81719e-05
-5.55143e-07
9.87462e-05
-5.73759e-07
9.93377e-05
-5.90993e-07
9.99452e-05
-6.0693e-07
0.000100567
-6.21645e-07
0.000101203
-6.35202e-07
0.000101852
-6.47648e-07
0.000102511
-6.59031e-07
0.000103181
-6.69383e-07
0.000103861
-6.78739e-07
0.000104548
-6.87122e-07
0.000105244
-6.94562e-07
0.000105945
-7.01079e-07
0.000106653
-7.067e-07
0.000107365
-7.11442e-07
0.000108081
-7.15329e-07
0.0001088
-7.18382e-07
0.000109522
-7.20621e-07
0.000110244
-7.22064e-07
0.000110968
-7.2273e-07
0.000111691
-7.22633e-07
0.000112414
-7.21785e-07
0.000113135
-7.20199e-07
0.000113853
-7.17878e-07
0.000114569
-7.14824e-07
0.00011528
-7.11035e-07
0.000115988
-7.06503e-07
0.000116689
-7.01212e-07
0.000117385
-6.95146e-07
0.000118074
-6.88275e-07
0.000118755
-6.80569e-07
0.000119428
-6.71985e-07
0.000120091
-6.62475e-07
0.000120744
-6.51982e-07
0.000121385
-6.40437e-07
0.000122013
-6.27762e-07
0.000122628
-6.13867e-07
0.000123227
-5.98646e-07
0.000123809
-5.81978e-07
0.000124374
-5.6372e-07
0.000124918
-5.43708e-07
0.00012544
-5.2175e-07
0.000125938
-4.9762e-07
0.00012641
-4.7105e-07
0.000126852
-4.41725e-07
0.000127262
-4.09262e-07
0.000127636
-3.73204e-07
0.000127969
-3.3299e-07
0.000128257
-2.87936e-07
0.000128495
-2.37189e-07
0.000128675
-1.79682e-07
0.00012879
-1.14062e-07
0.000128829
-3.85991e-08
0.00012878
4.89809e-08
0.000128629
1.51751e-07
0.000128355
2.73878e-07
0.000127934
4.21123e-07
0.000127333
6.01635e-07
0.000126506
8.27238e-07
0.000125391
1.11553e-06
0.000123898
1.49345e-06
0.000121895
2.00337e-06
0.000119182
2.71369e-06
0.000115445
3.7372e-06
0.000110181
5.2645e-06
0.00010254
7.64111e-06
9.09777e-05
1.15625e-05
1.89824e-05
7.19957e-05
9.96828e-05
-1.63867e-07
9.98372e-05
-2.99371e-07
0.000100053
-4.18368e-07
0.000100323
-5.22143e-07
0.00010064
-6.14441e-07
0.000101001
-6.97372e-07
0.0001014
-7.72388e-07
0.000101835
-8.40649e-07
0.000102301
-9.03056e-07
0.000102798
-9.60326e-07
0.000103321
-1.01304e-06
0.00010387
-1.06167e-06
0.000104442
-1.10662e-06
0.000105036
-1.14821e-06
0.000105649
-1.18671e-06
0.000106281
-1.22233e-06
0.00010693
-1.25528e-06
0.000107595
-1.28569e-06
0.000108274
-1.3137e-06
0.000108967
-1.33942e-06
0.000109671
-1.36293e-06
0.000110387
-1.38431e-06
0.000111112
-1.40362e-06
0.000111847
-1.42092e-06
0.000112589
-1.43626e-06
0.000113339
-1.4497e-06
0.000114094
-1.46127e-06
0.000114854
-1.47103e-06
0.000115619
-1.47902e-06
0.000116387
-1.48528e-06
0.000117157
-1.48985e-06
0.000117928
-1.49278e-06
0.0001187
-1.49409e-06
0.000119472
-1.49383e-06
0.000120243
-1.49201e-06
0.000121012
-1.48867e-06
0.000121779
-1.4838e-06
0.000122542
-1.47741e-06
0.000123302
-1.46951e-06
0.000124056
-1.46006e-06
0.000124804
-1.44905e-06
0.000125546
-1.43644e-06
0.000126281
-1.42216e-06
0.000127007
-1.40615e-06
0.000127724
-1.38833e-06
0.000128431
-1.3686e-06
0.000129127
-1.34684e-06
0.00012981
-1.32291e-06
0.000130479
-1.29665e-06
0.000131134
-1.26788e-06
0.000131772
-1.23637e-06
0.000132393
-1.20188e-06
0.000132994
-1.16413e-06
0.000133574
-1.12276e-06
0.00013413
-1.07741e-06
0.00013466
-1.02759e-06
0.000135163
-9.72777e-07
0.000135634
-9.12322e-07
0.00013607
-8.45456e-07
0.000136469
-7.71254e-07
0.000136825
-6.8859e-07
0.000137134
-5.96087e-07
0.000137389
-4.92045e-07
0.000137584
-3.74337e-07
0.000137711
-2.40287e-07
0.000137759
-8.64774e-08
0.000137717
9.15207e-08
0.00013757
2.99614e-07
0.000137298
5.45749e-07
0.000136879
8.40747e-07
0.000136281
1.19964e-06
0.000135465
1.64372e-06
0.000134377
2.20379e-06
0.000132946
2.9252e-06
0.000131074
3.87591e-06
0.000128629
5.1587e-06
0.000125438
6.92833e-06
0.000121291
9.41262e-06
0.000115995
1.29373e-05
0.000109682
1.78754e-05
2.39567e-05
0.000104708
0.000106662
-2.50667e-07
0.000106826
-4.62893e-07
0.000107055
-6.47714e-07
0.000107342
-8.08989e-07
0.00010768
-9.52366e-07
0.000108064
-1.08115e-06
0.00010849
-1.19762e-06
0.000108953
-1.30358e-06
0.000109451
-1.40043e-06
0.00010998
-1.4893e-06
0.000110539
-1.57108e-06
0.000111124
-1.64652e-06
0.000111734
-1.71623e-06
0.000112367
-1.78071e-06
0.000113022
-1.84038e-06
0.000113695
-1.89559e-06
0.000114387
-1.94664e-06
0.000115096
-1.99375e-06
0.00011582
-2.03713e-06
0.000116559
-2.07693e-06
0.00011731
-2.11331e-06
0.000118072
-2.14637e-06
0.000118846
-2.17622e-06
0.000119629
-2.20294e-06
0.00012042
-2.22662e-06
0.000121218
-2.24734e-06
0.000122023
-2.26516e-06
0.000122833
-2.28016e-06
0.000123647
-2.29241e-06
0.000124465
-2.30197e-06
0.000125285
-2.30891e-06
0.000126106
-2.31329e-06
0.000126928
-2.31517e-06
0.000127749
-2.31459e-06
0.00012857
-2.3116e-06
0.000129388
-2.30624e-06
0.000130204
-2.29851e-06
0.000131015
-2.28842e-06
0.000131823
-2.27598e-06
0.000132625
-2.26115e-06
0.00013342
-2.24388e-06
0.000134209
-2.22413e-06
0.000134989
-2.20181e-06
0.000135761
-2.1768e-06
0.000136522
-2.14899e-06
0.000137272
-2.11822e-06
0.00013801
-2.08432e-06
0.000138735
-2.04706e-06
0.000139446
-2.0062e-06
0.00014014
-1.96147e-06
0.000140817
-1.91252e-06
0.000141474
-1.85899e-06
0.000142111
-1.80043e-06
0.000142725
-1.73634e-06
0.000143315
-1.66611e-06
0.000143877
-1.58907e-06
0.000144409
-1.50438e-06
0.000144908
-1.41109e-06
0.000145372
-1.30804e-06
0.000145795
-1.19386e-06
0.000146174
-1.06688e-06
0.000146503
-9.2506e-07
0.000146777
-7.65908e-07
0.00014699
-5.86325e-07
0.000147132
-3.82436e-07
0.000147196
-1.49343e-07
0.000147169
1.192e-07
0.000147037
4.31369e-07
0.000146786
7.97982e-07
0.000146393
1.23345e-06
0.000145836
1.75725e-06
0.000145084
2.39602e-06
0.000144102
3.18661e-06
0.000142847
4.18039e-06
0.000141274
5.44905e-06
0.000139342
7.09143e-06
0.000137032
9.23873e-06
0.000134395
1.20498e-05
0.000131658
1.56743e-05
0.000129445
2.0089e-05
2.45547e-05
0.000128848
0.00011413
-3.40385e-07
0.000114302
-6.35216e-07
0.000114545
-8.90365e-07
0.000114849
-1.11326e-06
0.000115209
-1.31131e-06
0.000115617
-1.48914e-06
0.00011607
-1.64992e-06
0.000116562
-1.79615e-06
0.000117092
-1.92977e-06
0.000117656
-2.05235e-06
0.00011825
-2.16512e-06
0.000118873
-2.26912e-06
0.000119523
-2.36519e-06
0.000120197
-2.45403e-06
0.000120893
-2.53621e-06
0.000121611
-2.61223e-06
0.000122347
-2.68248e-06
0.000123101
-2.7473e-06
0.000123872
-2.80695e-06
0.000124657
-2.86166e-06
0.000125457
-2.91162e-06
0.000126268
-2.957e-06
0.000127091
-2.99794e-06
0.000127923
-3.03456e-06
0.000128764
-3.06697e-06
0.000129613
-3.09528e-06
0.000130468
-3.11959e-06
0.000131329
-3.14e-06
0.000132194
-3.15661e-06
0.000133062
-3.16949e-06
0.000133933
-3.17876e-06
0.000134805
-3.18449e-06
0.000135678
-3.18676e-06
0.00013655
-3.18563e-06
0.00013742
-3.18118e-06
0.000138288
-3.17344e-06
0.000139153
-3.16244e-06
0.000140014
-3.14819e-06
0.000140869
-3.13068e-06
0.000141719
-3.10988e-06
0.000142561
-3.08573e-06
0.000143396
-3.05814e-06
0.000144222
-3.02702e-06
0.000145039
-2.99221e-06
0.000145844
-2.95355e-06
0.000146637
-2.91083e-06
0.000147417
-2.86379e-06
0.000148183
-2.81217e-06
0.000148933
-2.75563e-06
0.000149667
-2.69378e-06
0.000150381
-2.62618e-06
0.000151075
-2.55233e-06
0.000151747
-2.47164e-06
0.000152395
-2.38343e-06
0.000153016
-2.28691e-06
0.000153609
-2.18117e-06
0.00015417
-2.06512e-06
0.000154697
-1.9375e-06
0.000155186
-1.79681e-06
0.000155634
-1.64124e-06
0.000156037
-1.46866e-06
0.000156389
-1.27645e-06
0.000156685
-1.06143e-06
0.000156919
-8.19721e-07
0.000157083
-5.46487e-07
0.00015717
-2.35722e-07
0.00015717
1.20088e-07
0.000157071
5.30521e-07
0.000156862
1.00794e-06
0.000156527
1.56836e-06
0.000156052
2.23262e-06
0.000155421
3.02795e-06
0.000154618
3.98994e-06
0.000153634
5.16484e-06
0.000152472
6.61161e-06
0.000151161
8.40251e-06
0.000149782
1.06183e-05
0.000148503
1.33297e-05
0.000147629
1.65484e-05
0.000147612
2.01058e-05
2.34135e-05
0.000148754
0.00012212
-4.32938e-07
0.000122301
-8.16036e-07
0.000122557
-1.14618e-06
0.000122879
-1.43499e-06
0.00012326
-1.69155e-06
0.000123692
-1.9218e-06
0.000124173
-2.12991e-06
0.000124696
-2.31912e-06
0.000125259
-2.49196e-06
0.000125857
-2.65046e-06
0.000126489
-2.79624e-06
0.000127151
-2.93062e-06
0.000127841
-3.05471e-06
0.000128557
-3.16941e-06
0.000129297
-3.27548e-06
0.000130059
-3.37355e-06
0.000130842
-3.46413e-06
0.000131643
-3.54765e-06
0.000132461
-3.62447e-06
0.000133295
-3.69488e-06
0.000134143
-3.75914e-06
0.000135005
-3.81744e-06
0.000135878
-3.86999e-06
0.000136761
-3.91693e-06
0.000137653
-3.95841e-06
0.000138554
-3.99457e-06
0.00013946
-4.02555e-06
0.000140373
-4.05146e-06
0.00014129
-4.07244e-06
0.00014221
-4.08861e-06
0.000143132
-4.10007e-06
0.000144055
-4.10695e-06
0.000144979
-4.10935e-06
0.000145902
-4.10735e-06
0.000146822
-4.10104e-06
0.00014774
-4.09046e-06
0.000148654
-4.07567e-06
0.000149564
-4.05668e-06
0.000150468
-4.03347e-06
0.000151365
-4.00601e-06
0.000152254
-3.97422e-06
0.000153135
-3.93801e-06
0.000154006
-3.89723e-06
0.000154866
-3.85171e-06
0.000155715
-3.80123e-06
0.00015655
-3.74553e-06
0.000157372
-3.68431e-06
0.000158177
-3.6172e-06
0.000158966
-3.54381e-06
0.000159737
-3.46363e-06
0.000160488
-3.37614e-06
0.000161217
-3.28069e-06
0.000161922
-3.17657e-06
0.000162603
-3.06293e-06
0.000163255
-2.9388e-06
0.000163878
-2.80307e-06
0.000164468
-2.65442e-06
0.000165022
-2.49133e-06
0.000165538
-2.31198e-06
0.000166012
-2.11425e-06
0.000166439
-1.89559e-06
0.000166816
-1.65296e-06
0.000167138
-1.3827e-06
0.000167399
-1.08037e-06
0.000167594
-7.40552e-07
0.000167716
-3.5665e-07
0.000167757
7.94e-08
0.00016771
5.7761e-07
0.000167568
1.15029e-06
0.000167324
1.813e-06
0.000166972
2.58502e-06
0.000166511
3.49013e-06
0.000165944
4.55731e-06
0.000165288
5.82103e-06
0.00016458
7.32043e-06
0.000163886
9.09616e-06
0.000163323
1.11819e-05
0.000163067
1.35863e-05
0.000163359
1.62569e-05
0.000164447
1.90184e-05
2.14895e-05
0.000166371
0.00013067
-5.28343e-07
0.000130859
-1.00512e-06
0.000131128
-1.415e-06
0.000131468
-1.77415e-06
0.00013187
-2.09319e-06
0.000132328
-2.37943e-06
0.000132836
-2.63805e-06
0.00013339
-2.87309e-06
0.000133987
-3.08773e-06
0.000134621
-3.28447e-06
0.000135291
-3.46534e-06
0.000135993
-3.632e-06
0.000136725
-3.78583e-06
0.000137484
-3.92794e-06
0.000138268
-4.0593e-06
0.000139076
-4.18067e-06
0.000139906
-4.2927e-06
0.000140755
-4.39593e-06
0.000141622
-4.4908e-06
0.000142506
-4.57769e-06
0.000143404
-4.6569e-06
0.000144316
-4.7287e-06
0.000145241
-4.79331e-06
0.000146176
-4.85094e-06
0.00014712
-4.90178e-06
0.000148072
-4.94598e-06
0.000149032
-4.98372e-06
0.000149996
-5.01516e-06
0.000150965
-5.04045e-06
0.000151937
-5.05975e-06
0.000152912
-5.07319e-06
0.000153887
-5.08093e-06
0.000154861
-5.08309e-06
0.000155835
-5.07978e-06
0.000156806
-5.0711e-06
0.000157774
-5.05713e-06
0.000158737
-5.03792e-06
0.000159695
-5.01349e-06
0.000160646
-4.98383e-06
0.00016159
-4.9489e-06
0.000162525
-4.90862e-06
0.000163451
-4.86286e-06
0.000164366
-4.81146e-06
0.00016527
-4.75421e-06
0.00016616
-4.69086e-06
0.000167037
-4.62109e-06
0.000167898
-4.54454e-06
0.000168742
-4.46078e-06
0.000169568
-4.36933e-06
0.000170375
-4.26961e-06
0.000171161
-4.16098e-06
0.000171924
-4.04271e-06
0.000172662
-3.91393e-06
0.000173373
-3.77368e-06
0.000174056
-3.62083e-06
0.000174708
-3.45409e-06
0.000175326
-3.27197e-06
0.000175908
-3.07273e-06
0.000176451
-2.85434e-06
0.000176952
-2.61445e-06
0.000177407
-2.35024e-06
0.000177814
-2.05844e-06
0.000178167
-1.73512e-06
0.000178462
-1.37564e-06
0.000178697
-9.74445e-07
0.000178866
-5.24882e-07
0.000178965
-1.92499e-08
0.000178991
5.52213e-07
0.000178942
1.20002e-06
0.000178818
1.93769e-06
0.000178622
2.78077e-06
0.000178366
3.74713e-06
0.000178067
4.85661e-06
0.000177759
6.13014e-06
0.000177492
7.58756e-06
0.000177345
9.24352e-06
0.000177427
1.11001e-05
0.00017788
1.3134e-05
0.00017886
1.5278e-05
0.000180483
1.73952e-05
1.92605e-05
0.000182713
0.000139819
-6.26675e-07
0.000140016
-1.20229e-06
0.000140298
-1.69668e-06
0.000140655
-2.13065e-06
0.000141078
-2.5163e-06
0.000141561
-2.8622e-06
0.000142098
-3.17465e-06
0.000142684
-3.45852e-06
0.000143314
-3.71763e-06
0.000143985
-3.95502e-06
0.000144694
-4.17316e-06
0.000145437
-4.37405e-06
0.000146211
-4.55937e-06
0.000147014
-4.73048e-06
0.000147844
-4.88853e-06
0.000148699
-5.03447e-06
0.000149576
-5.16907e-06
0.000150474
-5.293e-06
0.000151391
-5.40679e-06
0.000152325
-5.51089e-06
0.000153275
-5.60568e-06
0.000154238
-5.69149e-06
0.000155215
-5.76858e-06
0.000156202
-5.83721e-06
0.000157199
-5.8976e-06
0.000158204
-5.94996e-06
0.000159216
-5.99448e-06
0.000160233
-6.03138e-06
0.000161254
-6.06082e-06
0.000162279
-6.083e-06
0.000163305
-6.09811e-06
0.000164331
-6.1063e-06
0.000165357
-6.10774e-06
0.000166381
-6.10257e-06
0.000167402
-6.09091e-06
0.000168419
-6.07286e-06
0.00016943
-6.04848e-06
0.000170436
-6.0178e-06
0.000171434
-5.98083e-06
0.000172423
-5.93751e-06
0.000173403
-5.88776e-06
0.000174373
-5.83143e-06
0.000175331
-5.76835e-06
0.000176276
-5.69828e-06
0.000177207
-5.62091e-06
0.000178123
-5.5359e-06
0.000179022
-5.44283e-06
0.000179903
-5.34121e-06
0.000180765
-5.23049e-06
0.000181607
-5.11003e-06
0.000182426
-4.9791e-06
0.000183221
-4.83686e-06
0.00018399
-4.68236e-06
0.000184732
-4.51453e-06
0.000185444
-4.33212e-06
0.000186124
-4.13373e-06
0.000186771
-3.91775e-06
0.000187381
-3.6823e-06
0.000187953
-3.42526e-06
0.000188483
-3.14413e-06
0.00018897
-2.83605e-06
0.00018941
-2.4977e-06
0.0001898
-2.12519e-06
0.000190139
-1.71401e-06
0.000190424
-1.25892e-06
0.000190654
-7.53854e-07
0.000190827
-1.91832e-07
0.000190945
4.35078e-07
0.00019101
1.13543e-06
0.000191029
1.9192e-06
0.000191013
2.79719e-06
0.00019098
3.78059e-06
0.000190957
4.8802e-06
0.000190983
6.10506e-06
0.000191111
7.46025e-06
0.000191411
8.94358e-06
0.000191971
1.05406e-05
0.000192888
1.22182e-05
0.00019425
1.39164e-05
0.000196104
1.55413e-05
1.69666e-05
0.000198399
0.000149608
-7.28042e-07
0.000149813
-1.40741e-06
0.000150108
-1.9911e-06
0.000150482
-2.50436e-06
0.000150927
-2.96079e-06
0.000151435
-3.37018e-06
0.000152
-3.73988e-06
0.000152618
-4.07565e-06
0.000153283
-4.38201e-06
0.000153991
-4.66254e-06
0.000154739
-4.92018e-06
0.000155523
-5.15732e-06
0.00015634
-5.37593e-06
0.000157188
-5.57764e-06
0.000158064
-5.76382e-06
0.000158966
-5.93558e-06
0.000159892
-6.09387e-06
0.000160839
-6.23946e-06
0.000161806
-6.37299e-06
0.000162791
-6.495e-06
0.000163793
-6.60595e-06
0.000164809
-6.70621e-06
0.000165837
-6.79613e-06
0.000166877
-6.87599e-06
0.000167927
-6.94605e-06
0.000168984
-7.00659e-06
0.000170049
-7.05782e-06
0.000171119
-7.09999e-06
0.000172192
-7.13333e-06
0.000173269
-7.15805e-06
0.000174346
-7.17437e-06
0.000175423
-7.1825e-06
0.000176499
-7.18263e-06
0.000177573
-7.17493e-06
0.000178643
-7.15955e-06
0.000179708
-7.1366e-06
0.000180766
-7.10619e-06
0.000181818
-7.06834e-06
0.000182862
-7.02307e-06
0.000183895
-6.97033e-06
0.000184919
-6.91003e-06
0.000185931
-6.84203e-06
0.000186929
-6.76611e-06
0.000187914
-6.68203e-06
0.000188884
-6.58945e-06
0.000189837
-6.48799e-06
0.000190772
-6.37718e-06
0.000191689
-6.25651e-06
0.000192584
-6.12536e-06
0.000193458
-5.98302e-06
0.000194309
-5.82871e-06
0.000195134
-5.66154e-06
0.000195933
-5.48048e-06
0.000196704
-5.2844e-06
0.000197445
-5.07198e-06
0.000198154
-4.84177e-06
0.000198829
-4.59211e-06
0.000199469
-4.3211e-06
0.000200071
-4.02662e-06
0.000200634
-3.70622e-06
0.000201155
-3.35714e-06
0.000201635
-2.97624e-06
0.00020207
-2.55996e-06
0.000202461
-2.10429e-06
0.000202808
-1.60468e-06
0.000203111
-1.05609e-06
0.000203372
-4.52965e-07
0.000203597
2.1068e-07
0.000203793
9.40717e-07
0.000203969
1.74322e-06
0.000204143
2.62423e-06
0.000204335
3.58888e-06
0.000204575
4.6406e-06
0.000204901
5.77982e-06
0.00020536
7.00243e-06
0.000206006
8.29763e-06
0.000206902
9.64543e-06
0.000208107
1.1014e-05
0.000209666
1.23575e-05
0.000211592
1.3616e-05
1.47202e-05
0.000213839
0.000160083
-8.32577e-07
0.000160296
-1.62039e-06
0.000160603
-2.29812e-06
0.000160994
-2.89513e-06
0.00016146
-3.42654e-06
0.000161993
-3.90327e-06
0.000162588
-4.33372e-06
0.000163237
-4.72455e-06
0.000163937
-5.08099e-06
0.000164682
-5.40723e-06
0.000165469
-5.70666e-06
0.000166295
-5.98208e-06
0.000167155
-6.23581e-06
0.000168048
-6.46974e-06
0.000168971
-6.68546e-06
0.000169921
-6.88431e-06
0.000170895
-7.06736e-06
0.000171892
-7.23554e-06
0.00017291
-7.38959e-06
0.000173946
-7.53016e-06
0.000174999
-7.65777e-06
0.000176067
-7.77288e-06
0.000177148
-7.87588e-06
0.00017824
-7.96711e-06
0.000179342
-8.04689e-06
0.000180452
-8.11552e-06
0.000181569
-8.17329e-06
0.000182691
-8.22046e-06
0.000183816
-8.25731e-06
0.000184943
-8.2841e-06
0.000186071
-8.30108e-06
0.000187198
-8.30851e-06
0.000188323
-8.30661e-06
0.000189445
-8.29558e-06
0.000190563
-8.27561e-06
0.000191674
-8.24685e-06
0.000192779
-8.20941e-06
0.000193875
-8.16335e-06
0.000194962
-8.10868e-06
0.000196038
-8.04539e-06
0.000197102
-7.97337e-06
0.000198154
-7.89248e-06
0.000199192
-7.80251e-06
0.000200214
-7.70318e-06
0.00020122
-7.59416e-06
0.000202208
-7.47502e-06
0.000203177
-7.34529e-06
0.000204126
-7.2044e-06
0.000205053
-7.05172e-06
0.000205958
-6.8865e-06
0.000206838
-6.70794e-06
0.000207693
-6.51509e-06
0.00020852
-6.30692e-06
0.000209319
-6.08228e-06
0.000210088
-5.83985e-06
0.000210825
-5.5782e-06
0.00021153
-5.2957e-06
0.0002122
-4.99055e-06
0.000212835
-4.66073e-06
0.000213433
-4.30402e-06
0.000213995
-3.91793e-06
0.000214519
-3.49974e-06
0.000215007
-3.04644e-06
0.000215458
-2.55476e-06
0.000215875
-2.02119e-06
0.000216262
-1.44203e-06
0.000216623
-8.13413e-07
0.000216966
-1.31436e-07
0.0002173
6.07269e-07
0.000217639
1.40504e-06
0.000218
2.26382e-06
0.000218405
3.18409e-06
0.000218882
4.16419e-06
0.000219463
5.19941e-06
0.000220185
6.28115e-06
0.000221088
7.39579e-06
0.00022221
8.52384e-06
0.000223585
9.63936e-06
0.000225233
1.07101e-05
0.000227151
1.1699e-05
1.25686e-05
0.000229303
0.000171291
-9.40388e-07
0.000171512
-1.84112e-06
0.000171831
-2.61759e-06
0.000172239
-3.30273e-06
0.000172726
-3.91331e-06
0.000173285
-4.46124e-06
0.000173907
-4.95598e-06
0.000174588
-5.40506e-06
0.000175323
-5.81447e-06
0.000176105
-6.18899e-06
0.000176932
-6.53254e-06
0.000177799
-6.84831e-06
0.000178703
-7.13897e-06
0.000179641
-7.40673e-06
0.000180609
-7.65342e-06
0.000181607
-7.88057e-06
0.00018263
-8.08943e-06
0.000183676
-8.28108e-06
0.000184744
-8.45638e-06
0.000185831
-8.61608e-06
0.000186936
-8.76079e-06
0.000188055
-8.89104e-06
0.000189188
-9.00729e-06
0.000190332
-9.10995e-06
0.000191486
-9.19937e-06
0.000192647
-9.27592e-06
0.000193815
-9.33992e-06
0.000194988
-9.39169e-06
0.000196163
-9.43156e-06
0.00019734
-9.45982e-06
0.000198517
-9.47679e-06
0.000199693
-9.48275e-06
0.000200866
-9.47797e-06
0.000202034
-9.4627e-06
0.000203197
-9.43715e-06
0.000204353
-9.40152e-06
0.000205501
-9.35595e-06
0.000206639
-9.30051e-06
0.000207767
-9.23526e-06
0.000208883
-9.16018e-06
0.000209986
-9.07519e-06
0.000211075
-8.98015e-06
0.000212149
-8.87485e-06
0.000213206
-8.75902e-06
0.000214245
-8.63231e-06
0.000215266
-8.4943e-06
0.000216266
-8.34449e-06
0.000217245
-8.18233e-06
0.000218202
-8.00715e-06
0.000219135
-7.81823e-06
0.000220043
-7.61474e-06
0.000220924
-7.39577e-06
0.000221779
-7.16031e-06
0.000222605
-6.90723e-06
0.000223401
-6.6353e-06
0.000224167
-6.34317e-06
0.000224902
-6.02935e-06
0.000225604
-5.69222e-06
0.000226275
-5.33004e-06
0.000226912
-4.94089e-06
0.000227518
-4.52275e-06
0.000228093
-4.07345e-06
0.000228638
-3.59072e-06
0.000229156
-3.07223e-06
0.000229651
-2.51562e-06
0.000230129
-1.91864e-06
0.000230595
-1.27917e-06
0.00023106
-5.95416e-07
0.000231534
1.34008e-07
0.000232031
9.08909e-07
0.000232568
1.72776e-06
0.000233164
2.588e-06
0.000233844
3.48505e-06
0.000234632
4.4119e-06
0.000235556
5.35866e-06
0.00023664
6.31225e-06
0.000237908
7.25631e-06
0.000239376
8.17147e-06
0.000241051
9.03608e-06
0.000242923
9.82787e-06
1.05266e-05
0.000244965
0.000183284
-1.05156e-06
0.000183512
-2.06949e-06
0.000183844
-2.94929e-06
0.000184269
-3.72689e-06
0.000184776
-4.42074e-06
0.000185359
-5.04372e-06
0.00018601
-5.60626e-06
0.000186722
-6.11679e-06
0.000187491
-6.58205e-06
0.00018831
-7.00745e-06
0.000189176
-7.39741e-06
0.000190084
-7.75559e-06
0.000191031
-8.08501e-06
0.000192013
-8.38818e-06
0.000193028
-8.66721e-06
0.000194072
-8.92383e-06
0.000195143
-9.1595e-06
0.000196239
-9.37543e-06
0.000197356
-9.57263e-06
0.000198493
-9.75196e-06
0.000199648
-9.91411e-06
0.000200818
-1.00597e-05
0.000202001
-1.01893e-05
0.000203196
-1.03033e-05
0.0002044
-1.04022e-05
0.000205612
-1.04863e-05
0.00020683
-1.05561e-05
0.000208051
-1.0612e-05
0.000209275
-1.06543e-05
0.0002105
-1.06833e-05
0.000211724
-1.06994e-05
0.000212946
-1.0703e-05
0.000214164
-1.06944e-05
0.000215376
-1.06738e-05
0.000216582
-1.06416e-05
0.00021778
-1.05979e-05
0.000218969
-1.0543e-05
0.000220146
-1.04769e-05
0.000221312
-1.03998e-05
0.000222465
-1.03116e-05
0.000223604
-1.02124e-05
0.000224727
-1.01019e-05
0.000225833
-9.97994e-06
0.000226922
-9.84634e-06
0.000227992
-9.70073e-06
0.000229041
-9.5427e-06
0.00023007
-9.37178e-06
0.000231076
-9.18741e-06
0.000232059
-8.98896e-06
0.000233018
-8.77574e-06
0.000233951
-8.54696e-06
0.000234858
-8.30176e-06
0.000235738
-8.03921e-06
0.000236591
-7.75829e-06
0.000237414
-7.45789e-06
0.000238209
-7.13684e-06
0.000238974
-6.79387e-06
0.000239711
-6.42765e-06
0.000240419
-6.03677e-06
0.000241099
-5.61978e-06
0.000241752
-5.17519e-06
0.000242381
-4.70151e-06
0.000242988
-4.19729e-06
0.000243578
-3.66118e-06
0.000244155
-3.092e-06
0.000244727
-2.48883e-06
0.000245299
-1.85115e-06
0.000245884
-1.17889e-06
0.000246491
-4.72536e-07
0.000247134
2.66541e-07
0.000247828
1.03498e-06
0.000248588
1.82805e-06
0.000249434
2.64001e-06
0.000250383
3.46339e-06
0.000251454
4.2889e-06
0.000252661
5.10549e-06
0.000254018
5.90056e-06
0.00025553
6.66041e-06
0.000257195
7.371e-06
0.000259005
8.01911e-06
8.59396e-06
0.000260938
0.000196116
-1.16614e-06
0.000196352
-2.30534e-06
0.000196696
-3.29292e-06
0.000197137
-4.16719e-06
0.000197665
-4.94832e-06
0.000198272
-5.6501e-06
0.00019895
-6.28391e-06
0.000199693
-6.85905e-06
0.000200494
-7.38301e-06
0.00020135
-7.86184e-06
0.000202254
-8.3005e-06
0.000203202
-8.70309e-06
0.000204191
-9.07303e-06
0.000205217
-9.41315e-06
0.000206277
-9.72582e-06
0.000207367
-1.0013e-05
0.000208485
-1.02764e-05
0.000209628
-1.05174e-05
0.000210794
-1.0737e-05
0.00021198
-1.09364e-05
0.000213183
-1.11162e-05
0.000214402
-1.12772e-05
0.000215634
-1.14201e-05
0.000216878
-1.15452e-05
0.00021813
-1.16533e-05
0.00021939
-1.17446e-05
0.000220655
-1.18197e-05
0.000221924
-1.1879e-05
0.000223194
-1.19228e-05
0.000224464
-1.19518e-05
0.000225732
-1.19661e-05
0.000226997
-1.19663e-05
0.000228257
-1.19527e-05
0.00022951
-1.19257e-05
0.000230756
-1.18856e-05
0.000231992
-1.18326e-05
0.000233218
-1.1767e-05
0.000234431
-1.1689e-05
0.000235631
-1.15987e-05
0.000236817
-1.1496e-05
0.000237988
-1.13811e-05
0.000239141
-1.12538e-05
0.000240277
-1.1114e-05
0.000241393
-1.09614e-05
0.000242489
-1.07958e-05
0.000243565
-1.06167e-05
0.000244618
-1.04238e-05
0.000245648
-1.02164e-05
0.000246655
-9.99416e-06
0.000247637
-9.75631e-06
0.000248593
-9.50218e-06
0.000249524
-9.23102e-06
0.000250428
-8.94202e-06
0.000251305
-8.63432e-06
0.000252155
-8.30701e-06
0.000252979
-7.95915e-06
0.000253776
-7.58976e-06
0.000254547
-7.19787e-06
0.000255294
-6.7825e-06
0.000256018
-6.34268e-06
0.000256721
-5.87755e-06
0.000257407
-5.3863e-06
0.000258079
-4.8683e-06
0.000258742
-4.32312e-06
0.000259402
-3.75062e-06
0.000260065
-3.15104e-06
0.00026074
-2.52506e-06
0.000261435
-1.87395e-06
0.000262163
-1.19954e-06
0.000262935
-5.04181e-07
0.000263762
2.08757e-07
0.000264657
9.3406e-07
0.000265632
1.66519e-06
0.000266701
2.39537e-06
0.000267874
3.11671e-06
0.00026916
3.82057e-06
0.000270564
4.49776e-06
0.000272086
5.13896e-06
0.000273722
5.73527e-06
0.000275463
6.27894e-06
6.76443e-06
0.000277293
0.000209848
-1.28408e-06
0.000210091
-2.54843e-06
0.000210446
-3.64804e-06
0.000210902
-4.62304e-06
0.00021145
-5.49531e-06
0.00021208
-6.27954e-06
0.000212784
-6.98797e-06
0.000213557
-7.63078e-06
0.000214391
-8.21621e-06
0.000215281
-8.75095e-06
0.000216222
-9.2405e-06
0.000217209
-9.68945e-06
0.000218238
-1.01016e-05
0.000219307
-1.04801e-05
0.00022041
-1.08276e-05
0.000221544
-1.11464e-05
0.000222707
-1.14384e-05
0.000223896
-1.17049e-05
0.000225108
-1.19475e-05
0.00022634
-1.21671e-05
0.00022759
-1.23647e-05
0.000228856
-1.25412e-05
0.000230134
-1.26971e-05
0.000231424
-1.28331e-05
0.000232722
-1.29498e-05
0.000234027
-1.30478e-05
0.000235336
-1.31274e-05
0.000236648
-1.31893e-05
0.000237961
-1.32339e-05
0.000239273
-1.32618e-05
0.000240581
-1.32733e-05
0.000241886
-1.32689e-05
0.000243184
-1.32492e-05
0.000244474
-1.32144e-05
0.000245755
-1.3165e-05
0.000247026
-1.31014e-05
0.000248284
-1.30237e-05
0.000249529
-1.29324e-05
0.000250759
-1.28274e-05
0.000251974
-1.27089e-05
0.000253171
-1.2577e-05
0.000254351
-1.24316e-05
0.000255511
-1.22727e-05
0.000256651
-1.21e-05
0.00025777
-1.19132e-05
0.000258867
-1.17122e-05
0.000259941
-1.14965e-05
0.000260992
-1.12657e-05
0.000262018
-1.10193e-05
0.00026302
-1.07568e-05
0.000263997
-1.04777e-05
0.000264949
-1.01812e-05
0.000265875
-9.86679e-06
0.000266775
-9.53381e-06
0.000267651
-9.18159e-06
0.000268503
-8.80947e-06
0.000269331
-8.41682e-06
0.000270137
-8.00305e-06
0.000270924
-7.56763e-06
0.000271692
-7.11013e-06
0.000272446
-6.63026e-06
0.000273189
-6.12787e-06
0.000273925
-5.60306e-06
0.000274659
-5.05618e-06
0.000275397
-4.48793e-06
0.000276146
-3.89938e-06
0.000276914
-3.29208e-06
0.00027771
-2.66808e-06
0.000278541
-2.02997e-06
0.000279419
-1.38088e-06
0.000280353
-7.24268e-07
0.000281352
-6.40681e-08
0.000282424
5.9404e-07
0.000283576
1.2438e-06
0.000284815
1.87851e-06
0.000286145
2.49192e-06
0.000287566
3.07751e-06
0.000289076
3.6291e-06
0.000290671
4.14119e-06
0.000292342
4.60932e-06
5.03081e-06
0.000294076
0.00022454
-1.4053e-06
0.00022479
-2.79841e-06
0.000225156
-4.01404e-06
0.000225627
-5.09364e-06
0.000226193
-6.0607e-06
0.000226845
-6.93084e-06
0.000227575
-7.7171e-06
0.000228375
-8.4305e-06
0.00022924
-9.08003e-06
0.000230163
-9.67304e-06
0.000231139
-1.02156e-05
0.000232163
-1.07127e-05
0.000233231
-1.11686e-05
0.000234339
-1.15868e-05
0.000235483
-1.19703e-05
0.00023666
-1.23216e-05
0.000237865
-1.26427e-05
0.000239097
-1.29354e-05
0.000240352
-1.32012e-05
0.000241628
-1.34412e-05
0.000242921
-1.36566e-05
0.00024423
-1.38482e-05
0.000245552
-1.40169e-05
0.000246883
-1.41633e-05
0.000248223
-1.42881e-05
0.000249569
-1.43919e-05
0.000250919
-1.44753e-05
0.00025227
-1.45388e-05
0.000253621
-1.45832e-05
0.00025497
-1.46087e-05
0.000256314
-1.46162e-05
0.000257653
-1.4606e-05
0.000258985
-1.45787e-05
0.000260307
-1.45348e-05
0.000261618
-1.44748e-05
0.000262918
-1.4399e-05
0.000264204
-1.43079e-05
0.000265475
-1.42017e-05
0.00026673
-1.40807e-05
0.000267968
-1.3945e-05
0.000269187
-1.37948e-05
0.000270387
-1.363e-05
0.000271567
-1.34508e-05
0.000272726
-1.32569e-05
0.000273862
-1.30482e-05
0.000274976
-1.28245e-05
0.000276067
-1.25856e-05
0.000277134
-1.23311e-05
0.000278176
-1.20606e-05
0.000279195
-1.17737e-05
0.000280189
-1.14701e-05
0.000281158
-1.11493e-05
0.000282104
-1.0811e-05
0.000283026
-1.04546e-05
0.000283926
-1.00798e-05
0.000284804
-9.68629e-06
0.000285662
-9.27376e-06
0.000286502
-8.84202e-06
0.000287327
-8.39099e-06
0.000288139
-7.92072e-06
0.000288941
-7.43144e-06
0.000289738
-6.92358e-06
0.000290534
-6.39781e-06
0.000291334
-5.85509e-06
0.000292144
-5.29667e-06
0.00029297
-4.72419e-06
0.000293819
-4.13967e-06
0.000294697
-3.54552e-06
0.000295613
-2.94461e-06
0.000296573
-2.34016e-06
0.000297586
-1.73574e-06
0.000298658
-1.13517e-06
0.000299795
-5.42033e-07
0.000301
3.92899e-08
0.000302276
6.03619e-07
0.000303623
1.14593e-06
0.00030504
1.66144e-06
0.000306524
2.14615e-06
0.000308069
2.59674e-06
0.000309669
3.01072e-06
3.38693e-06
0.000311313
0.000240261
-1.52959e-06
0.000240517
-3.05478e-06
0.000240894
-4.3901e-06
0.000241378
-5.57788e-06
0.000241961
-6.64314e-06
0.000242633
-7.6024e-06
0.000243386
-8.46948e-06
0.000244213
-9.25619e-06
0.000245106
-9.97228e-06
0.00024606
-1.06257e-05
0.000247068
-1.12231e-05
0.000248127
-1.17701e-05
0.00024923
-1.22712e-05
0.000250375
-1.27303e-05
0.000251557
-1.31507e-05
0.000252772
-1.35351e-05
0.000254017
-1.3886e-05
0.000255288
-1.42051e-05
0.000256582
-1.44942e-05
0.000257897
-1.47546e-05
0.00025923
-1.49875e-05
0.000260577
-1.5194e-05
0.000261937
-1.53749e-05
0.000263307
-1.5531e-05
0.000264683
-1.56631e-05
0.000266065
-1.57719e-05
0.00026745
-1.5858e-05
0.000268835
-1.59221e-05
0.000270219
-1.59649e-05
0.000271599
-1.5987e-05
0.000272974
-1.5989e-05
0.000274341
-1.59716e-05
0.0002757
-1.59354e-05
0.000277048
-1.58809e-05
0.000278384
-1.58087e-05
0.000279706
-1.57193e-05
0.000281013
-1.56132e-05
0.000282304
-1.54907e-05
0.000283577
-1.53522e-05
0.000284832
-1.51979e-05
0.000286067
-1.50281e-05
0.000287282
-1.48429e-05
0.000288475
-1.46423e-05
0.000289647
-1.44264e-05
0.000290795
-1.41951e-05
0.000291921
-1.39483e-05
0.000293023
-1.36858e-05