/*--------------------------------*- C++ -*----------------------------------*\
| =========                 |                                                 |
| \\      /  F ield         | OpenFOAM: The Open Source CFD Toolbox           |
|  \\    /   O peration     | Version:  2106                                  |
|   \\  /    A nd           | Website:  www.openfoam.com                      |
|    \\/     M anipulation  |                                                 |
\*---------------------------------------------------------------------------*/
FoamFile
{
    version     2.0;
    format      ascii;
    arch        "LSB;label=32;scalar=64";
    class       volScalarField;
    location    "3.6";
    object      T;
}
// * * * * * * * * * * * * * * * * * * * * * * * * * * * * * * * * * * * * * //

dimensions      [0 0 0 1 0 0 0];

internalField   nonuniform List<scalar> 
12013
(
300.003
300.008
300.013
300.019
300.025
300.031
300.038
300.045
300.052
300.059
300.067
300.076
300.084
300.094
300.103
300.113
300.124
300.135
300.147
300.159
300.171
300.184
300.198
300.213
300.227
300.243
300.259
300.276
300.293
300.311
300.33
300.35
300.37
300.391
300.412
300.435
300.458
300.482
300.506
300.532
300.558
300.585
300.613
300.642
300.672
300.702
300.734
300.766
300.8
300.834
300.87
300.906
300.944
300.982
301.022
301.063
301.105
301.148
301.193
301.239
301.286
301.335
301.385
301.437
301.49
301.545
301.602
301.662
301.723
301.787
301.853
301.922
301.995
302.071
302.151
302.236
302.327
302.426
302.535
302.659
302.806
300.003
300.008
300.013
300.019
300.025
300.031
300.038
300.045
300.052
300.059
300.067
300.076
300.084
300.094
300.103
300.113
300.124
300.135
300.147
300.159
300.171
300.184
300.198
300.213
300.227
300.243
300.259
300.276
300.293
300.311
300.33
300.35
300.37
300.391
300.412
300.435
300.458
300.482
300.506
300.532
300.558
300.585
300.613
300.642
300.672
300.702
300.734
300.766
300.8
300.834
300.869
300.906
300.943
300.982
301.022
301.063
301.105
301.148
301.192
301.238
301.285
301.334
301.384
301.436
301.489
301.544
301.602
301.661
301.722
301.785
301.851
301.92
301.992
302.068
302.147
302.231
302.321
302.418
302.522
302.637
302.764
300.003
300.008
300.013
300.019
300.025
300.031
300.038
300.045
300.052
300.059
300.067
300.076
300.084
300.094
300.103
300.113
300.124
300.135
300.147
300.159
300.171
300.184
300.198
300.212
300.227
300.243
300.259
300.276
300.293
300.311
300.33
300.35
300.37
300.391
300.412
300.435
300.458
300.482
300.506
300.532
300.558
300.585
300.613
300.642
300.671
300.702
300.734
300.766
300.799
300.834
300.869
300.906
300.943
300.981
301.021
301.062
301.104
301.147
301.191
301.237
301.284
301.333
301.383
301.434
301.488
301.543
301.599
301.658
301.719
301.782
301.847
301.916
301.987
302.061
302.139
302.221
302.308
302.4
302.498
302.602
302.709
300.003
300.008
300.013
300.019
300.025
300.031
300.038
300.045
300.052
300.059
300.067
300.076
300.084
300.094
300.103
300.113
300.124
300.135
300.147
300.159
300.171
300.184
300.198
300.212
300.227
300.243
300.259
300.276
300.293
300.311
300.33
300.349
300.37
300.39
300.412
300.434
300.457
300.481
300.506
300.531
300.558
300.585
300.613
300.641
300.671
300.702
300.733
300.765
300.799
300.833
300.868
300.905
300.942
300.981
301.02
301.061
301.103
301.146
301.19
301.236
301.283
301.331
301.381
301.432
301.485
301.54
301.596
301.654
301.714
301.777
301.841
301.908
301.978
302.051
302.127
302.206
302.289
302.375
302.465
302.558
302.652
300.003
300.008
300.013
300.019
300.025
300.031
300.038
300.045
300.052
300.059
300.067
300.076
300.084
300.094
300.103
300.113
300.124
300.135
300.146
300.159
300.171
300.184
300.198
300.212
300.227
300.243
300.259
300.276
300.293
300.311
300.33
300.349
300.369
300.39
300.412
300.434
300.457
300.481
300.506
300.531
300.557
300.584
300.612
300.641
300.671
300.701
300.732
300.765
300.798
300.832
300.867
300.904
300.941
300.979
301.019
301.059
301.101
301.144
301.188
301.233
301.28
301.328
301.378
301.428
301.481
301.535
301.591
301.648
301.708
301.769
301.833
301.898
301.966
302.037
302.11
302.185
302.264
302.344
302.427
302.51
302.593
300.003
300.008
300.013
300.019
300.025
300.031
300.038
300.044
300.052
300.059
300.067
300.076
300.084
300.094
300.103
300.113
300.124
300.135
300.146
300.158
300.171
300.184
300.198
300.212
300.227
300.243
300.259
300.275
300.293
300.311
300.33
300.349
300.369
300.39
300.411
300.434
300.457
300.481
300.505
300.531
300.557
300.584
300.612
300.64
300.67
300.7
300.731
300.764
300.797
300.831
300.866
300.902
300.939
300.978
301.017
301.057
301.099
301.141
301.185
301.23
301.277
301.324
301.373
301.424
301.475
301.529
301.584
301.64
301.699
301.759
301.821
301.885
301.951
302.018
302.088
302.16
302.233
302.308
302.383
302.459
302.533
300.003
300.008
300.013
300.019
300.025
300.031
300.038
300.044
300.052
300.059
300.067
300.076
300.084
300.093
300.103
300.113
300.124
300.135
300.146
300.158
300.171
300.184
300.198
300.212
300.227
300.242
300.259
300.275
300.293
300.311
300.329
300.349
300.369
300.39
300.411
300.433
300.456
300.48
300.505
300.53
300.556
300.583
300.611
300.639
300.669
300.699
300.73
300.762
300.795
300.829
300.864
300.9
300.937
300.975
301.014
301.054
301.096
301.138
301.181
301.226
301.272
301.319
301.367
301.417
301.468
301.521
301.575
301.63
301.687
301.746
301.806
301.868
301.931
301.996
302.062
302.13
302.198
302.267
302.337
302.405
302.473
300.003
300.008
300.013
300.019
300.025
300.031
300.038
300.044
300.052
300.059
300.067
300.075
300.084
300.093
300.103
300.113
300.124
300.135
300.146
300.158
300.171
300.184
300.198
300.212
300.227
300.242
300.258
300.275
300.292
300.31
300.329
300.348
300.368
300.389
300.41
300.433
300.456
300.479
300.504
300.529
300.555
300.582
300.61
300.638
300.667
300.698
300.729
300.761
300.794
300.827
300.862
300.898
300.935
300.972
301.011
301.051
301.092
301.134
301.177
301.221
301.266
301.313
301.36
301.409
301.459
301.511
301.564
301.618
301.673
301.73
301.788
301.847
301.908
301.97
302.032
302.096
302.16
302.224
302.287
302.35
302.412
300.003
300.008
300.013
300.019
300.025
300.031
300.038
300.044
300.052
300.059
300.067
300.075
300.084
300.093
300.103
300.113
300.123
300.134
300.146
300.158
300.171
300.184
300.197
300.212
300.226
300.242
300.258
300.275
300.292
300.31
300.328
300.348
300.368
300.388
300.41
300.432
300.455
300.478
300.503
300.528
300.554
300.581
300.608
300.636
300.666
300.696
300.727
300.758
300.791
300.825
300.859
300.895
300.931
300.969
301.007
301.046
301.087
301.128
301.171
301.214
301.259
301.305
301.351
301.399
301.449
301.499
301.55
301.603
301.656
301.711
301.767
301.824
301.881
301.94
301.999
302.058
302.118
302.177
302.236
302.294
302.351
300.003
300.008
300.013
300.019
300.025
300.031
300.037
300.044
300.052
300.059
300.067
300.075
300.084
300.093
300.103
300.113
300.123
300.134
300.146
300.158
300.17
300.183
300.197
300.211
300.226
300.241
300.257
300.274
300.291
300.309
300.328
300.347
300.367
300.388
300.409
300.431
300.454
300.477
300.502
300.527
300.552
300.579
300.606
300.635
300.664
300.694
300.724
300.756
300.788
300.822
300.856
300.891
300.927
300.964
301.002
301.041
301.081
301.121
301.163
301.206
301.25
301.295
301.341
301.388
301.435
301.484
301.534
301.585
301.637
301.689
301.743
301.797
301.851
301.907
301.962
302.018
302.073
302.128
302.183
302.236
302.289
300.003
300.008
300.013
300.019
300.025
300.031
300.037
300.044
300.051
300.059
300.067
300.075
300.084
300.093
300.103
300.113
300.123
300.134
300.145
300.157
300.17
300.183
300.197
300.211
300.226
300.241
300.257
300.273
300.291
300.309
300.327
300.346
300.366
300.387
300.408
300.43
300.452
300.476
300.5
300.525
300.551
300.577
300.604
300.632
300.661
300.691
300.721
300.753
300.785
300.818
300.852
300.886
300.922
300.958
300.996
301.034
301.073
301.114
301.155
301.197
301.239
301.283
301.328
301.374
301.42
301.467
301.515
301.564
301.614
301.664
301.715
301.767
301.818
301.87
301.922
301.974
302.026
302.077
302.128
302.178
302.226
300.003
300.008
300.013
300.019
300.025
300.031
300.037
300.044
300.051
300.059
300.067
300.075
300.084
300.093
300.102
300.112
300.123
300.134
300.145
300.157
300.17
300.183
300.196
300.21
300.225
300.24
300.256
300.273
300.29
300.308
300.326
300.345
300.365
300.385
300.406
300.428
300.451
300.474
300.498
300.523
300.548
300.575
300.602
300.629
300.658
300.687
300.718
300.749
300.78
300.813
300.846
300.881
300.916
300.952
300.989
301.026
301.065
301.104
301.144
301.185
301.227
301.27
301.313
301.357
301.402
301.448
301.494
301.541
301.589
301.637
301.685
301.733
301.782
301.831
301.88
301.928
301.977
302.024
302.071
302.118
302.163
300.003
300.008
300.013
300.019
300.025
300.031
300.037
300.044
300.051
300.059
300.067
300.075
300.083
300.093
300.102
300.112
300.122
300.133
300.145
300.157
300.169
300.182
300.196
300.21
300.224
300.24
300.255
300.272
300.289
300.307
300.325
300.344
300.364
300.384
300.405
300.427
300.449
300.472
300.496
300.52
300.546
300.572
300.598
300.626
300.654
300.683
300.713
300.744
300.775
300.807
300.84
300.874
300.909
300.944
300.98
301.017
301.054
301.093
301.132
301.172
301.213
301.254
301.296
301.339
301.382
301.426
301.47
301.515
301.56
301.606
301.652
301.697
301.743
301.789
301.835
301.88
301.925
301.97
302.014
302.057
302.099
300.003
300.008
300.013
300.019
300.025
300.031
300.037
300.044
300.051
300.059
300.066
300.075
300.083
300.092
300.102
300.112
300.122
300.133
300.144
300.156
300.169
300.181
300.195
300.209
300.224
300.239
300.254
300.271
300.288
300.305
300.324
300.342
300.362
300.382
300.403
300.424
300.447
300.47
300.493
300.518
300.543
300.568
300.595
300.622
300.65
300.679
300.708
300.738
300.769
300.801
300.833
300.866
300.9
300.935
300.97
301.006
301.043
301.08
301.118
301.157
301.196
301.236
301.277
301.318
301.359
301.401
301.444
301.486
301.529
301.572
301.616
301.659
301.702
301.745
301.788
301.83
301.872
301.914
301.955
301.995
302.034
300.003
300.008
300.013
300.019
300.024
300.031
300.037
300.044
300.051
300.058
300.066
300.074
300.083
300.092
300.101
300.111
300.122
300.132
300.144
300.156
300.168
300.181
300.194
300.208
300.223
300.238
300.253
300.27
300.286
300.304
300.322
300.341
300.36
300.38
300.401
300.422
300.444
300.467
300.49
300.514
300.539
300.564
300.59
300.617
300.645
300.673
300.702
300.732
300.762
300.793
300.825
300.857
300.89
300.924
300.958
300.993
301.029
301.065
301.102
301.14
301.178
301.216
301.255
301.294
301.334
301.374
301.414
301.455
301.496
301.536
301.577
301.618
301.658
301.699
301.739
301.778
301.818
301.856
301.894
301.932
301.969
300.002
300.008
300.013
300.019
300.024
300.03
300.037
300.044
300.051
300.058
300.066
300.074
300.083
300.092
300.101
300.111
300.121
300.132
300.143
300.155
300.167
300.18
300.193
300.207
300.221
300.236
300.252
300.268
300.285
300.302
300.32
300.339
300.358
300.378
300.398
300.419
300.441
300.463
300.486
300.51
300.534
300.56
300.585
300.612
300.639
300.666
300.695
300.724
300.754
300.784
300.815
300.847
300.879
300.912
300.945
300.979
301.014
301.049
301.084
301.12
301.157
301.194
301.231
301.269
301.306
301.345
301.383
301.421
301.46
301.498
301.536
301.575
301.613
301.65
301.688
301.725
301.761
301.797
301.833
301.868
301.902
300.002
300.008
300.013
300.018
300.024
300.03
300.037
300.043
300.05
300.058
300.066
300.074
300.082
300.091
300.1
300.11
300.12
300.131
300.142
300.154
300.166
300.179
300.192
300.206
300.22
300.235
300.25
300.266
300.283
300.3
300.318
300.336
300.355
300.375
300.395
300.416
300.437
300.459
300.482
300.505
300.529
300.554
300.579
300.605
300.632
300.659
300.687
300.715
300.744
300.774
300.804
300.835
300.866
300.898
300.93
300.963
300.996
301.03
301.064
301.099
301.134
301.169
301.205
301.241
301.276
301.313
301.349
301.385
301.421
301.457
301.493
301.529
301.565
301.6
301.635
301.67
301.704
301.738
301.771
301.803
301.835
300.002
300.008
300.013
300.018
300.024
300.03
300.037
300.043
300.05
300.058
300.065
300.073
300.082
300.091
300.1
300.11
300.12
300.13
300.141
300.153
300.165
300.178
300.191
300.204
300.219
300.233
300.248
300.264
300.281
300.298
300.315
300.333
300.352
300.371
300.391
300.412
300.433
300.455
300.477
300.5
300.523
300.548
300.572
300.598
300.624
300.65
300.677
300.705
300.733
300.762
300.791
300.821
300.852
300.882
300.914
300.945
300.977
301.01
301.042
301.075
301.109
301.142
301.176
301.21
301.244
301.278
301.312
301.347
301.381
301.414
301.448
301.482
301.515
301.548
301.581
301.613
301.645
301.676
301.707
301.738
301.768
300.002
300.007
300.013
300.018
300.024
300.03
300.036
300.043
300.05
300.057
300.065
300.073
300.081
300.09
300.099
300.109
300.119
300.129
300.14
300.152
300.164
300.176
300.189
300.203
300.217
300.231
300.246
300.262
300.278
300.295
300.312
300.33
300.348
300.367
300.387
300.407
300.428
300.449
300.471
300.494
300.517
300.54
300.565
300.589
300.615
300.64
300.667
300.694
300.721
300.749
300.777
300.806
300.835
300.865
300.895
300.925
300.956
300.987
301.018
301.05
301.081
301.113
301.145
301.177
301.21
301.242
301.274
301.306
301.338
301.37
301.401
301.433
301.464
301.495
301.525
301.555
301.585
301.614
301.643
301.672
301.7
300.002
300.007
300.013
300.018
300.024
300.03
300.036
300.043
300.049
300.057
300.064
300.072
300.081
300.089
300.098
300.108
300.118
300.128
300.139
300.151
300.162
300.175
300.187
300.201
300.215
300.229
300.244
300.259
300.275
300.292
300.309
300.326
300.344
300.363
300.382
300.402
300.422
300.443
300.465
300.487
300.509
300.532
300.556
300.58
300.604
300.629
300.655
300.681
300.707
300.734
300.762
300.789
300.817
300.846
300.874
300.904
300.933
300.962
300.992
301.022
301.052
301.082
301.112
301.143
301.173
301.203
301.233
301.264
301.293
301.323
301.353
301.382
301.411
301.44
301.468
301.497
301.524
301.552
301.579
301.605
301.631
300.002
300.007
300.013
300.018
300.024
300.029
300.036
300.042
300.049
300.056
300.064
300.072
300.08
300.088
300.097
300.107
300.117
300.127
300.138
300.149
300.161
300.173
300.185
300.198
300.212
300.226
300.241
300.256
300.272
300.288
300.304
300.322
300.339
300.358
300.377
300.396
300.416
300.436
300.457
300.478
300.5
300.523
300.546
300.569
300.593
300.617
300.642
300.667
300.692
300.718
300.744
300.771
300.798
300.825
300.852
300.88
300.908
300.936
300.964
300.992
301.021
301.049
301.078
301.106
301.135
301.163
301.191
301.219
301.247
301.275
301.303
301.33
301.357
301.384
301.411
301.437
301.462
301.488
301.513
301.538
301.562
300.002
300.007
300.012
300.018
300.023
300.029
300.035
300.042
300.049
300.056
300.063
300.071
300.079
300.087
300.096
300.106
300.115
300.126
300.136
300.147
300.159
300.171
300.183
300.196
300.209
300.223
300.237
300.252
300.268
300.284
300.3
300.317
300.334
300.352
300.37
300.389
300.408
300.428
300.449
300.469
300.491
300.512
300.534
300.557
300.58
300.603
300.627
300.651
300.675
300.7
300.725
300.751
300.776
300.802
300.828
300.854
300.881
300.907
300.934
300.961
300.987
301.014
301.041
301.068
301.094
301.121
301.147
301.174
301.2
301.226
301.251
301.277
301.302
301.327
301.352
301.376
301.4
301.424
301.447
301.47
301.493
300.002
300.007
300.012
300.018
300.023
300.029
300.035
300.041
300.048
300.055
300.062
300.07
300.078
300.086
300.095
300.104
300.114
300.124
300.134
300.145
300.156
300.168
300.18
300.193
300.206
300.22
300.234
300.248
300.263
300.279
300.295
300.311
300.328
300.345
300.363
300.382
300.4
300.419
300.439
300.459
300.48
300.501
300.522
300.544
300.566
300.588
300.611
300.634
300.657
300.681
300.705
300.729
300.753
300.778
300.802
300.827
300.852
300.877
300.902
300.927
300.952
300.977
301.002
301.027
301.052
301.077
301.102
301.126
301.151
301.175
301.199
301.222
301.246
301.269
301.292
301.315
301.337
301.359
301.381
301.402
301.423
300.002
300.007
300.012
300.017
300.023
300.028
300.034
300.041
300.047
300.054
300.061
300.069
300.077
300.085
300.094
300.103
300.112
300.122
300.132
300.143
300.154
300.165
300.177
300.19
300.202
300.216
300.229
300.244
300.258
300.273
300.289
300.305
300.321
300.338
300.355
300.373
300.391
300.41
300.429
300.448
300.468
300.488
300.508
300.529
300.55
300.571
300.593
300.615
300.637
300.66
300.682
300.705
300.728
300.751
300.775
300.798
300.821
300.845
300.868
300.892
300.916
300.939
300.962
300.986
301.009
301.032
301.055
301.078
301.101
301.123
301.145
301.167
301.189
301.21
301.232
301.253
301.273
301.294
301.314
301.334
301.353
300.002
300.007
300.012
300.017
300.022
300.028
300.034
300.04
300.047
300.053
300.06
300.068
300.076
300.084
300.092
300.101
300.11
300.12
300.13
300.14
300.151
300.162
300.174
300.186
300.198
300.211
300.225
300.238
300.253
300.267
300.282
300.298
300.314
300.33
300.346
300.364
300.381
300.399
300.417
300.436
300.454
300.474
300.493
300.513
300.533
300.553
300.574
300.595
300.616
300.637
300.659
300.68
300.702
300.724
300.745
300.767
300.789
300.811
300.833
300.855
300.877
300.899
300.921
300.943
300.964
300.986
301.007
301.028
301.049
301.07
301.091
301.111
301.131
301.151
301.171
301.19
301.21
301.229
301.247
301.265
301.284
300.002
300.007
300.012
300.017
300.022
300.028
300.033
300.039
300.046
300.052
300.059
300.066
300.074
300.082
300.09
300.099
300.108
300.117
300.127
300.137
300.148
300.159
300.17
300.182
300.194
300.206
300.219
300.233
300.246
300.26
300.275
300.29
300.305
300.321
300.337
300.353
300.37
300.387
300.404
300.422
300.44
300.458
300.477
300.496
300.515
300.534
300.554
300.573
300.593
300.613
300.633
300.654
300.674
300.694
300.715
300.735
300.756
300.776
300.797
300.818
300.838
300.858
300.879
300.899
300.919
300.939
300.958
300.978
300.998
301.017
301.036
301.055
301.073
301.092
301.11
301.128
301.146
301.163
301.18
301.197
301.214
300.002
300.007
300.011
300.016
300.022
300.027
300.033
300.039
300.045
300.051
300.058
300.065
300.072
300.08
300.088
300.097
300.105
300.115
300.124
300.134
300.144
300.155
300.166
300.177
300.189
300.201
300.213
300.226
300.239
300.253
300.267
300.281
300.296
300.311
300.326
300.342
300.358
300.374
300.391
300.408
300.425
300.442
300.46
300.477
300.495
300.514
300.532
300.55
300.569
300.588
300.607
300.626
300.645
300.664
300.683
300.702
300.721
300.74
300.759
300.778
300.797
300.816
300.835
300.854
300.872
300.891
300.909
300.927
300.945
300.963
300.98
300.998
301.015
301.032
301.049
301.065
301.082
301.098
301.114
301.129
301.145
300.002
300.007
300.011
300.016
300.021
300.026
300.032
300.038
300.044
300.05
300.057
300.063
300.071
300.078
300.086
300.094
300.103
300.112
300.121
300.13
300.14
300.15
300.161
300.172
300.183
300.195
300.207
300.219
300.232
300.245
300.258
300.272
300.286
300.3
300.315
300.33
300.345
300.36
300.376
300.392
300.408
300.424
300.441
300.458
300.475
300.492
300.509
300.526
300.544
300.561
300.579
300.597
300.615
300.632
300.65
300.668
300.686
300.703
300.721
300.739
300.756
300.774
300.791
300.808
300.825
300.842
300.859
300.876
300.892
300.909
300.925
300.941
300.957
300.972
300.988
301.003
301.018
301.033
301.048
301.062
301.076
300.002
300.006
300.011
300.016
300.021
300.026
300.031
300.037
300.042
300.049
300.055
300.062
300.069
300.076
300.084
300.091
300.1
300.108
300.117
300.126
300.136
300.146
300.156
300.166
300.177
300.188
300.2
300.212
300.224
300.236
300.249
300.262
300.275
300.289
300.303
300.317
300.331
300.346
300.36
300.375
300.391
300.406
300.422
300.437
300.453
300.469
300.485
300.501
300.518
300.534
300.55
300.567
300.583
300.6
300.616
300.633
300.649
300.665
300.682
300.698
300.714
300.73
300.746
300.762
300.778
300.793
300.809
300.824
300.84
300.855
300.869
300.884
300.899
300.913
300.927
300.941
300.955
300.969
300.982
300.995
301.008
300.002
300.006
300.011
300.015
300.02
300.025
300.03
300.036
300.041
300.047
300.053
300.06
300.067
300.074
300.081
300.088
300.096
300.105
300.113
300.122
300.131
300.14
300.15
300.16
300.171
300.181
300.192
300.203
300.215
300.227
300.239
300.251
300.264
300.276
300.29
300.303
300.316
300.33
300.344
300.358
300.372
300.387
300.401
300.416
300.431
300.446
300.46
300.476
300.491
300.506
300.521
300.536
300.551
300.567
300.582
300.597
300.612
300.627
300.642
300.657
300.672
300.687
300.701
300.716
300.73
300.745
300.759
300.773
300.787
300.801
300.814
300.828
300.841
300.854
300.867
300.88
300.893
300.905
300.917
300.93
300.941
300.002
300.006
300.01
300.015
300.019
300.024
300.029
300.034
300.04
300.046
300.051
300.058
300.064
300.071
300.078
300.085
300.093
300.101
300.109
300.117
300.126
300.135
300.144
300.154
300.164
300.174
300.184
300.195
300.206
300.217
300.228
300.24
300.252
300.264
300.276
300.288
300.301
300.314
300.327
300.34
300.353
300.367
300.38
300.394
300.407
300.421
300.435
300.449
300.463
300.477
300.491
300.505
300.519
300.533
300.547
300.561
300.575
300.589
300.602
300.616
300.63
300.643
300.657
300.67
300.683
300.696
300.709
300.722
300.735
300.747
300.76
300.772
300.784
300.796
300.808
300.82
300.831
300.843
300.854
300.865
300.876
300.002
300.006
300.01
300.014
300.019
300.023
300.028
300.033
300.038
300.044
300.05
300.055
300.062
300.068
300.075
300.082
300.089
300.097
300.104
300.112
300.121
300.129
300.138
300.147
300.156
300.166
300.176
300.186
300.196
300.206
300.217
300.228
300.239
300.25
300.262
300.273
300.285
300.297
300.309
300.321
300.334
300.346
300.359
300.371
300.384
300.397
300.409
300.422
300.435
300.448
300.461
300.474
300.487
300.499
300.512
300.525
300.538
300.55
300.563
300.575
300.588
300.6
300.612
300.625
300.637
300.649
300.66
300.672
300.684
300.695
300.706
300.718
300.729
300.74
300.75
300.761
300.772
300.782
300.792
300.802
300.812
300.002
300.006
300.009
300.014
300.018
300.022
300.027
300.032
300.037
300.042
300.047
300.053
300.059
300.065
300.072
300.078
300.085
300.092
300.1
300.107
300.115
300.123
300.131
300.14
300.149
300.158
300.167
300.176
300.186
300.196
300.206
300.216
300.226
300.237
300.247
300.258
300.269
300.28
300.291
300.303
300.314
300.325
300.337
300.349
300.36
300.372
300.384
300.395
300.407
300.419
300.431
300.443
300.454
300.466
300.478
300.489
300.501
300.513
300.524
300.535
300.547
300.558
300.569
300.58
300.591
300.602
300.613
300.623
300.634
300.644
300.654
300.665
300.675
300.685
300.694
300.704
300.714
300.723
300.732
300.741
300.75
300.002
300.005
300.009
300.013
300.017
300.021
300.026
300.03
300.035
300.04
300.045
300.051
300.056
300.062
300.068
300.075
300.081
300.088
300.095
300.102
300.109
300.117
300.125
300.133
300.141
300.149
300.158
300.167
300.176
300.185
300.194
300.204
300.213
300.223
300.233
300.243
300.253
300.263
300.273
300.284
300.294
300.305
300.315
300.326
300.337
300.348
300.358
300.369
300.38
300.391
300.401
300.412
300.423
300.433
300.444
300.455
300.465
300.476
300.486
300.496
300.507
300.517
300.527
300.537
300.547
300.557
300.567
300.576
300.586
300.595
300.604
300.614
300.623
300.632
300.641
300.649
300.658
300.666
300.675
300.683
300.691
300.002
300.005
300.009
300.012
300.016
300.02
300.024
300.029
300.033
300.038
300.043
300.048
300.054
300.059
300.065
300.071
300.077
300.083
300.09
300.097
300.103
300.111
300.118
300.125
300.133
300.141
300.149
300.157
300.165
300.174
300.183
300.191
300.2
300.209
300.218
300.228
300.237
300.246
300.256
300.265
300.275
300.285
300.294
300.304
300.314
300.324
300.334
300.343
300.353
300.363
300.373
300.383
300.392
300.402
300.412
300.421
300.431
300.44
300.45
300.459
300.469
300.478
300.487
300.496
300.505
300.514
300.523
300.531
300.54
300.549
300.557
300.565
300.574
300.582
300.59
300.598
300.605
300.613
300.621
300.628
300.635
300.002
300.005
300.008
300.012
300.015
300.019
300.023
300.027
300.032
300.036
300.041
300.046
300.051
300.056
300.062
300.067
300.073
300.079
300.085
300.091
300.098
300.104
300.111
300.118
300.125
300.133
300.14
300.148
300.156
300.163
300.171
300.18
300.188
300.196
300.205
300.213
300.222
300.23
300.239
300.248
300.257
300.265
300.274
300.283
300.292
300.301
300.31
300.319
300.328
300.337
300.346
300.355
300.364
300.373
300.381
300.39
300.399
300.407
300.416
300.424
300.433
300.441
300.449
300.458
300.466
300.474
300.482
300.49
300.498
300.505
300.513
300.52
300.528
300.535
300.542
300.549
300.557
300.563
300.57
300.577
300.584
300.002
300.005
300.008
300.011
300.015
300.018
300.022
300.026
300.03
300.034
300.039
300.044
300.048
300.053
300.058
300.064
300.069
300.075
300.08
300.086
300.092
300.099
300.105
300.112
300.118
300.125
300.132
300.139
300.146
300.154
300.161
300.169
300.176
300.184
300.192
300.199
300.207
300.215
300.223
300.231
300.24
300.248
300.256
300.264
300.272
300.28
300.289
300.297
300.305
300.313
300.321
300.329
300.337
300.345
300.353
300.361
300.369
300.377
300.385
300.393
300.4
300.408
300.415
300.423
300.43
300.437
300.445
300.452
300.459
300.466
300.473
300.48
300.486
300.493
300.499
300.506
300.512
300.519
300.525
300.531
300.537
300.001
300.004
300.007
300.011
300.014
300.017
300.021
300.025
300.029
300.033
300.037
300.041
300.046
300.051
300.055
300.06
300.065
300.071
300.076
300.082
300.088
300.093
300.099
300.105
300.112
300.118
300.125
300.131
300.138
300.145
300.152
300.159
300.166
300.173
300.18
300.187
300.195
300.202
300.209
300.217
300.224
300.232
300.239
300.247
300.254
300.262
300.269
300.277
300.284
300.292
300.299
300.307
300.314
300.322
300.329
300.336
300.343
300.35
300.358
300.365
300.372
300.379
300.385
300.392
300.399
300.406
300.412
300.419
300.425
300.431
300.438
300.444
300.45
300.456
300.462
300.468
300.474
300.48
300.485
300.491
300.496
300.001
300.004
300.007
300.01
300.013
300.017
300.02
300.024
300.028
300.031
300.035
300.04
300.044
300.048
300.053
300.058
300.063
300.068
300.073
300.078
300.083
300.089
300.095
300.1
300.106
300.112
300.118
300.125
300.131
300.137
300.144
300.15
300.157
300.164
300.17
300.177
300.184
300.191
300.198
300.205
300.212
300.219
300.226
300.233
300.24
300.247
300.254
300.261
300.267
300.274
300.281
300.288
300.295
300.302
300.309
300.315
300.322
300.329
300.335
300.342
300.348
300.355
300.361
300.367
300.373
300.379
300.386
300.392
300.397
300.403
300.409
300.415
300.42
300.426
300.432
300.437
300.442
300.448
300.453
300.458
300.463
300.001
300.004
300.007
300.01
300.013
300.016
300.02
300.023
300.027
300.03
300.034
300.038
300.042
300.047
300.051
300.056
300.06
300.065
300.07
300.075
300.08
300.086
300.091
300.097
300.102
300.108
300.114
300.12
300.126
300.132
300.138
300.144
300.15
300.157
300.163
300.17
300.176
300.183
300.189
300.196
300.202
300.209
300.215
300.222
300.229
300.235
300.242
300.248
300.255
300.262
300.268
300.275
300.281
300.287
300.294
300.3
300.306
300.313
300.319
300.325
300.331
300.337
300.343
300.349
300.355
300.36
300.366
300.372
300.377
300.383
300.388
300.394
300.399
300.404
300.409
300.414
300.419
300.424
300.429
300.434
300.439
300.001
300.004
300.007
300.01
300.013
300.016
300.019
300.023
300.026
300.03
300.034
300.037
300.042
300.046
300.05
300.054
300.059
300.064
300.069
300.073
300.079
300.084
300.089
300.094
300.1
300.105
300.111
300.117
300.123
300.129
300.135
300.141
300.147
300.153
300.159
300.165
300.172
300.178
300.184
300.191
300.197
300.203
300.21
300.216
300.223
300.229
300.235
300.242
300.248
300.254
300.261
300.267
300.273
300.279
300.286
300.292
300.298
300.304
300.31
300.316
300.321
300.327
300.333
300.339
300.344
300.35
300.355
300.361
300.366
300.371
300.377
300.382
300.387
300.392
300.397
300.402
300.407
300.411
300.416
300.421
300.425
303.001
303.129
303.207
303.279
303.342
303.393
303.428
303.467
303.507
303.544
303.575
303.609
303.643
303.677
303.71
303.743
303.774
303.801
303.83
303.859
303.888
303.917
303.946
303.974
304.003
304.031
304.058
304.085
304.112
304.138
304.164
304.19
304.215
304.241
304.266
304.29
304.315
304.339
304.363
304.386
304.41
304.432
304.456
304.482
304.506
304.53
304.552
304.575
304.599
304.622
304.645
304.665
304.687
304.709
304.732
304.755
304.778
304.801
304.823
304.844
304.862
304.882
304.902
304.923
304.944
304.965
304.985
305.005
305.025
305.045
305.064
305.083
305.101
305.12
305.138
305.156
305.174
305.191
305.207
305.226
305.246
305.264
305.28
305.296
305.311
305.325
305.341
305.359
305.375
305.389
305.401
305.416
305.432
305.446
305.46
305.476
305.49
305.502
305.516
305.528
305.539
305.552
305.562
305.574
305.586
305.598
305.609
305.618
305.628
305.636
305.645
305.655
305.665
305.674
305.683
305.689
305.696
305.704
305.711
305.717
305.722
305.727
305.732
305.736
305.74
305.742
305.745
305.747
305.748
305.748
305.748
305.747
305.744
305.741
305.736
305.731
305.724
305.716
305.707
305.696
305.684
305.67
305.654
305.637
305.618
305.597
305.573
305.546
305.517
305.483
305.441
305.399
305.357
305.309
305.255
305.194
305.128
305.015
304.912
304.781
304.61
302.9
303.013
303.101
303.176
303.241
303.296
303.342
303.386
303.427
303.466
303.502
303.538
303.574
303.608
303.643
303.676
303.707
303.737
303.768
303.798
303.827
303.857
303.886
303.915
303.944
303.972
304
304.028
304.055
304.082
304.108
304.135
304.16
304.186
304.212
304.237
304.261
304.286
304.31
304.334
304.358
304.382
304.406
304.431
304.455
304.479
304.502
304.525
304.549
304.572
304.595
304.617
304.639
304.661
304.684
304.707
304.73
304.753
304.775
304.796
304.816
304.836
304.856
304.877
304.898
304.919
304.939
304.96
304.98
304.999
305.019
305.038
305.057
305.075
305.093
305.112
305.129
305.147
305.164
305.183
305.202
305.22
305.237
305.253
305.268
305.283
305.299
305.316
305.332
305.346
305.36
305.375
305.39
305.404
305.419
305.434
305.448
305.461
305.474
305.487
305.498
305.511
305.522
305.533
305.545
305.558
305.568
305.578
305.588
305.596
305.606
305.615
305.625
305.635
305.643
305.65
305.657
305.665
305.672
305.678
305.683
305.688
305.693
305.697
305.701
305.704
305.706
305.708
305.709
305.71
305.709
305.708
305.706
305.702
305.698
305.692
305.686
305.678
305.668
305.658
305.645
305.632
305.616
305.599
305.579
305.558
305.534
305.507
305.477
305.443
305.402
305.36
305.316
305.267
305.212
305.149
305.078
304.969
304.861
304.724
304.536
302.818
302.917
303.003
303.078
303.144
303.202
303.253
303.3
303.345
303.386
303.425
303.463
303.5
303.536
303.571
303.605
303.638
303.67
303.701
303.732
303.763
303.793
303.823
303.852
303.882
303.91
303.939
303.967
303.995
304.022
304.049
304.076
304.102
304.128
304.154
304.179
304.205
304.23