/*--------------------------------*- C++ -*----------------------------------*\
| =========                 |                                                 |
| \\      /  F ield         | OpenFOAM: The Open Source CFD Toolbox           |
|  \\    /   O peration     | Version:  2106                                  |
|   \\  /    A nd           | Website:  www.openfoam.com                      |
|    \\/     M anipulation  |                                                 |
\*---------------------------------------------------------------------------*/
FoamFile
{
    version     2.0;
    format      ascii;
    arch        "LSB;label=32;scalar=64";
    class       volVectorField;
    location    "3.6";
    object      U;
}
// * * * * * * * * * * * * * * * * * * * * * * * * * * * * * * * * * * * * * //

dimensions      [0 1 -1 0 0 0 0];

internalField   nonuniform List<vector> 
12013
(
(0.100029 -8.08268e-06 0)
(0.100148 -1.49463e-05 0)
(0.10034 -2.12815e-05 0)
(0.100588 -2.70899e-05 0)
(0.100886 -3.25189e-05 0)
(0.10123 -3.7654e-05 0)
(0.101615 -4.25495e-05 0)
(0.102038 -4.72498e-05 0)
(0.102494 -5.17894e-05 0)
(0.102981 -5.6194e-05 0)
(0.103498 -6.04851e-05 0)
(0.10404 -6.46799e-05 0)
(0.104607 -6.87917e-05 0)
(0.105197 -7.28314e-05 0)
(0.105808 -7.68073e-05 0)
(0.106438 -8.07264e-05 0)
(0.107087 -8.45926e-05 0)
(0.107752 -8.84094e-05 0)
(0.108432 -9.21787e-05 0)
(0.109127 -9.59006e-05 0)
(0.109835 -9.95756e-05 0)
(0.110555 -0.000103202 0)
(0.111285 -0.000106778 0)
(0.112026 -0.000110301 0)
(0.112775 -0.00011377 0)
(0.113532 -0.000117179 0)
(0.114296 -0.000120529 0)
(0.115066 -0.000123813 0)
(0.115841 -0.00012703 0)
(0.11662 -0.000130175 0)
(0.117402 -0.000133246 0)
(0.118186 -0.000136238 0)
(0.118972 -0.000139148 0)
(0.119759 -0.00014197 0)
(0.120545 -0.000144699 0)
(0.121331 -0.00014733 0)
(0.122115 -0.000149855 0)
(0.122897 -0.000152266 0)
(0.123675 -0.000154553 0)
(0.124449 -0.000156706 0)
(0.125219 -0.000158712 0)
(0.125982 -0.000160555 0)
(0.12674 -0.000162218 0)
(0.12749 -0.000163682 0)
(0.128231 -0.000164922 0)
(0.128964 -0.000165914 0)
(0.129686 -0.000166626 0)
(0.130397 -0.000167025 0)
(0.131096 -0.000167069 0)
(0.131781 -0.000166714 0)
(0.132451 -0.000165908 0)
(0.133104 -0.00016459 0)
(0.133739 -0.000162689 0)
(0.134354 -0.000160126 0)
(0.134947 -0.000156803 0)
(0.135517 -0.000152611 0)
(0.136059 -0.000147417 0)
(0.136572 -0.000141064 0)
(0.137053 -0.000133365 0)
(0.137498 -0.000124091 0)
(0.137902 -0.000112966 0)
(0.138261 -9.96492e-05 0)
(0.13857 -8.3717e-05 0)
(0.138822 -6.46372e-05 0)
(0.139008 -4.17335e-05 0)
(0.139119 -1.41353e-05 0)
(0.139144 1.93036e-05 0)
(0.139069 6.0144e-05 0)
(0.138873 0.000110515 0)
(0.138535 0.000173382 0)
(0.138024 0.000252976 0)
(0.137298 0.000355515 0)
(0.1363 0.000490388 0)
(0.134952 0.000672224 0)
(0.133138 0.000924562 0)
(0.130687 0.00128652 0)
(0.127336 0.00182535 0)
(0.122653 0.00266343 0)
(0.115925 0.00406075 0)
(0.106199 0.00676968 0)
(0.0950671 0.0142712 0)
(0.100027 -2.46845e-05 0)
(0.100145 -4.58296e-05 0)
(0.100336 -6.5287e-05 0)
(0.100583 -8.31132e-05 0)
(0.100881 -9.97759e-05 0)
(0.101225 -0.000115534 0)
(0.101609 -0.000130556 0)
(0.102031 -0.000144979 0)
(0.102486 -0.000158906 0)
(0.102973 -0.000172419 0)
(0.103488 -0.000185583 0)
(0.10403 -0.00019845 0)
(0.104596 -0.000211062 0)
(0.105185 -0.000223452 0)
(0.105795 -0.000235646 0)
(0.106424 -0.000247664 0)
(0.107072 -0.00025952 0)
(0.107736 -0.000271224 0)
(0.108415 -0.00028278 0)
(0.109108 -0.000294191 0)
(0.109815 -0.000305457 0)
(0.110533 -0.000316573 0)
(0.111263 -0.000327534 0)
(0.112002 -0.000338333 0)
(0.112749 -0.000348961 0)
(0.113505 -0.000359411 0)
(0.114267 -0.000369672 0)
(0.115036 -0.000379735 0)
(0.115809 -0.000389589 0)
(0.116586 -0.000399224 0)
(0.117366 -0.000408629 0)
(0.118149 -0.000417792 0)
(0.118933 -0.000426701 0)
(0.119717 -0.00043534 0)
(0.120502 -0.000443695 0)
(0.121285 -0.000451746 0)
(0.122067 -0.000459472 0)
(0.122846 -0.000466847 0)
(0.123622 -0.000473844 0)
(0.124394 -0.000480427 0)
(0.125161 -0.000486558 0)
(0.125922 -0.000492189 0)
(0.126677 -0.000497269 0)
(0.127424 -0.000501736 0)
(0.128163 -0.00050552 0)
(0.128893 -0.000508539 0)
(0.129613 -0.000510703 0)
(0.130321 -0.000511904 0)
(0.131017 -0.000512022 0)
(0.131699 -0.000510917 0)
(0.132365 -0.00050843 0)
(0.133016 -0.000504375 0)
(0.133648 -0.00049854 0)
(0.13426 -0.000490676 0)
(0.134851 -0.000480494 0)
(0.135417 -0.000467654 0)
(0.135957 -0.000451755 0)
(0.136468 -0.000432319 0)
(0.136947 -0.000408776 0)
(0.13739 -0.000380436 0)
(0.137794 -0.00034646 0)
(0.138152 -0.000305818 0)
(0.138462 -0.000257229 0)
(0.138715 -0.000199091 0)
(0.138904 -0.00012937 0)
(0.139021 -4.54559e-05 0)
(0.139054 5.60633e-05 0)
(0.13899 0.000179776 0)
(0.138812 0.000331918 0)
(0.138499 0.000521093 0)
(0.138025 0.000759457 0)
(0.137354 0.00106459 0)
(0.13644 0.00146257 0)
(0.135222 0.00199302 0)
(0.133617 0.00271772 0)
(0.131511 0.00373492 0)
(0.128753 0.00520282 0)
(0.125139 0.00737703 0)
(0.120419 0.010671 0)
(0.114619 0.0156657 0)
(0.109762 0.0225566 0)
(0.100025 -4.19754e-05 0)
(0.100141 -7.86256e-05 0)
(0.100331 -0.000112137 0)
(0.100577 -0.000142828 0)
(0.100873 -0.000171509 0)
(0.101215 -0.000198627 0)
(0.101598 -0.000224475 0)
(0.102018 -0.000249288 0)
(0.102472 -0.000273246 0)
(0.102957 -0.000296488 0)
(0.103471 -0.000319128 0)
(0.104011 -0.000341254 0)
(0.104575 -0.000362939 0)
(0.105162 -0.000384241 0)
(0.10577 -0.000405203 0)
(0.106397 -0.00042586 0)
(0.107042 -0.000446237 0)
(0.107704 -0.00046635 0)
(0.10838 -0.000486207 0)
(0.109072 -0.000505814 0)
(0.109775 -0.000525167 0)
(0.110491 -0.00054426 0)
(0.111218 -0.000563085 0)
(0.111954 -0.000581628 0)
(0.112698 -0.000599876 0)
(0.113451 -0.000617814 0)
(0.11421 -0.000635425 0)
(0.114975 -0.000652693 0)
(0.115744 -0.000669599 0)
(0.116518 -0.000686126 0)
(0.117294 -0.000702253 0)
(0.118073 -0.000717962 0)
(0.118853 -0.000733231 0)
(0.119634 -0.000748033 0)
(0.120414 -0.000762343 0)
(0.121193 -0.000776128 0)
(0.12197 -0.00078935 0)
(0.122745 -0.000801967 0)
(0.123516 -0.00081393 0)
(0.124283 -0.000825179 0)
(0.125045 -0.000835646 0)
(0.125801 -0.000845253 0)
(0.12655 -0.00085391 0)
(0.127292 -0.00086151 0)
(0.128026 -0.000867935 0)
(0.12875 -0.000873045 0)
(0.129464 -0.000876684 0)
(0.130166 -0.00087867 0)
(0.130856 -0.000878796 0)
(0.131532 -0.000876824 0)
(0.132193 -0.000872483 0)
(0.132838 -0.000865457 0)
(0.133464 -0.000855385 0)
(0.134071 -0.000841844 0)
(0.134656 -0.000824345 0)
(0.135217 -0.000802313 0)
(0.135751 -0.000775069 0)
(0.136258 -0.00074181 0)
(0.136732 -0.000701577 0)
(0.137171 -0.000653214 0)
(0.137572 -0.000595319 0)
(0.137929 -0.000526177 0)
(0.138238 -0.000443671 0)
(0.138493 -0.000345155 0)
(0.138688 -0.000227299 0)
(0.138813 -8.58544e-05 0)
(0.138859 8.46674e-05 0)
(0.138815 0.000291534 0)
(0.138667 0.000544491 0)
(0.138397 0.000856757 0)
(0.137986 0.00124659 0)
(0.137407 0.00173965 0)
(0.136631 0.00237261 0)
(0.135619 0.00319875 0)
(0.134332 0.00429624 0)
(0.132725 0.00578017 0)
(0.130766 0.0078173 0)
(0.128458 0.0106386 0)
(0.125899 0.0145323 0)
(0.123471 0.0197097 0)
(0.122291 0.0255857 0)
(0.100023 -5.98146e-05 0)
(0.100137 -0.000113252 0)
(0.100324 -0.000161784 0)
(0.100568 -0.000206257 0)
(0.100862 -0.000247798 0)
(0.101201 -0.00028706 0)
(0.101582 -0.000324475 0)
(0.101999 -0.000360383 0)
(0.102451 -0.000395046 0)
(0.102933 -0.000428669 0)
(0.103444 -0.000461414 0)
(0.103982 -0.000493412 0)
(0.104543 -0.000524766 0)
(0.105127 -0.00055556 0)
(0.105732 -0.000585859 0)
(0.106356 -0.000615712 0)
(0.106997 -0.000645155 0)
(0.107656 -0.000674211 0)
(0.108329 -0.000702893 0)
(0.109016 -0.000731207 0)
(0.109716 -0.000759149 0)
(0.110428 -0.000786712 0)
(0.11115 -0.00081388 0)
(0.111881 -0.000840637 0)
(0.112621 -0.000866961 0)
(0.113369 -0.000892831 0)
(0.114123 -0.000918223 0)
(0.114883 -0.000943112 0)
(0.115647 -0.000967472 0)
(0.116415 -0.000991277 0)
(0.117186 -0.0010145 0)
(0.117959 -0.00103711 0)
(0.118733 -0.00105908 0)
(0.119507 -0.00108036 0)
(0.120281 -0.00110093 0)
(0.121053 -0.00112073 0)
(0.121824 -0.00113971 0)
(0.122591 -0.00115781 0)
(0.123355 -0.00117496 0)
(0.124115 -0.00119107 0)
(0.124869 -0.00120604 0)
(0.125617 -0.00121976 0)
(0.126359 -0.0012321 0)
(0.127093 -0.00124292 0)
(0.127818 -0.00125203 0)
(0.128534 -0.00125924 0)
(0.12924 -0.00126432 0)
(0.129933 -0.00126702 0)
(0.130615 -0.00126703 0)
(0.131282 -0.00126402 0)
(0.131934 -0.00125761 0)
(0.13257 -0.00124733 0)
(0.133188 -0.00123268 0)
(0.133786 -0.00121307 0)
(0.134362 -0.00118779 0)
(0.134915 -0.00115603 0)
(0.135443 -0.00111685 0)
(0.135942 -0.00106911 0)
(0.13641 -0.00101149 0)
(0.136844 -0.000942358 0)
(0.137241 -0.000859793 0)
(0.137597 -0.000761432 0)
(0.137906 -0.000644382 0)
(0.138165 -0.000505059 0)
(0.138367 -0.000338986 0)
(0.138505 -0.000140518 0)
(0.138571 9.75209e-05 0)
(0.138557 0.000384442 0)
(0.138452 0.000732476 0)
(0.138245 0.00115782 0)
(0.137922 0.00168214 0)
(0.137468 0.00233473 0)
(0.136871 0.00315547 0)
(0.136119 0.0041988 0)
(0.135206 0.0055387 0)
(0.134143 0.00727359 0)
(0.132975 0.00952768 0)
(0.131802 0.0124391 0)
(0.130822 0.0161121 0)
(0.130377 0.0204685 0)
(0.130945 0.024848 0)
(0.10002 -7.82141e-05 0)
(0.100133 -0.000149655 0)
(0.100317 -0.000214209 0)
(0.100557 -0.000273428 0)
(0.100848 -0.000328719 0)
(0.101184 -0.000380955 0)
(0.101562 -0.000430717 0)
(0.101976 -0.000478463 0)
(0.102424 -0.000524541 0)
(0.102903 -0.000569225 0)
(0.10341 -0.000612732 0)
(0.103944 -0.000655236 0)
(0.104501 -0.000696876 0)
(0.105081 -0.000737762 0)
(0.105682 -0.000777982 0)
(0.106301 -0.000817601 0)
(0.106938 -0.000856665 0)
(0.107591 -0.000895207 0)
(0.10826 -0.000933244 0)
(0.108942 -0.000970783 0)
(0.109636 -0.00100782 0)
(0.110342 -0.00104434 0)
(0.111059 -0.00108033 0)
(0.111784 -0.00111577 0)
(0.112518 -0.00115061 0)
(0.113259 -0.00118485 0)
(0.114006 -0.00121844 0)
(0.114759 -0.00125135 0)
(0.115516 -0.00128355 0)
(0.116277 -0.001315 0)
(0.11704 -0.00134567 0)
(0.117805 -0.00137551 0)
(0.118571 -0.00140448 0)
(0.119336 -0.00143254 0)
(0.120102 -0.00145963 0)
(0.120865 -0.00148569 0)
(0.121627 -0.00151065 0)
(0.122385 -0.00153443 0)
(0.123139 -0.00155694 0)
(0.123889 -0.00157805 0)
(0.124633 -0.00159764 0)
(0.125372 -0.00161557 0)
(0.126103 -0.00163166 0)
(0.126826 -0.0016457 0)
(0.12754 -0.00165749 0)
(0.128245 -0.00166675 0)
(0.12894 -0.00167319 0)
(0.129622 -0.00167646 0)
(0.130292 -0.00167619 0)
(0.130948 -0.00167193 0)
(0.131589 -0.00166317 0)
(0.132213 -0.00164934 0)
(0.13282 -0.00162976 0)
(0.133407 -0.00160367 0)
(0.133973 -0.00157018 0)
(0.134516 -0.00152823 0)
(0.135034 -0.00147662 0)
(0.135525 -0.00141392 0)
(0.135986 -0.00133843 0)
(0.136414 -0.00124814 0)
(0.136807 -0.00114062 0)
(0.137161 -0.00101297 0)
(0.137472 -0.000861627 0)
(0.137737 -0.000682257 0)
(0.13795 -0.000469495 0)
(0.138107 -0.000216683 0)
(0.138201 8.44796e-05 0)
(0.138227 0.000444465 0)
(0.138179 0.00087666 0)
(0.13805 0.00139826 0)
(0.137835 0.00203138 0)
(0.13753 0.00280448 0)
(0.137136 0.00375408 0)
(0.136661 0.00492648 0)
(0.136124 0.00637898 0)
(0.135565 0.00817895 0)
(0.135057 0.0103972 0)
(0.134718 0.0130883 0)
(0.134719 0.0162448 0)
(0.135282 0.0197035 0)
(0.136586 0.0229923 0)
(0.100018 -9.71853e-05 0)
(0.100128 -0.00018778 0)
(0.100309 -0.000269382 0)
(0.100545 -0.000344343 0)
(0.100832 -0.000414318 0)
(0.101164 -0.000480398 0)
(0.101537 -0.000543329 0)
(0.101947 -0.00060369 0)
(0.102391 -0.000661925 0)
(0.102865 -0.000718379 0)
(0.103368 -0.00077333 0)
(0.103897 -0.000826998 0)
(0.104449 -0.00087956 0)
(0.105024 -0.000931155 0)
(0.105619 -0.000981894 0)
(0.106233 -0.00103186 0)
(0.106864 -0.00108111 0)
(0.107511 -0.00112969 0)
(0.108173 -0.00117761 0)
(0.108848 -0.0012249 0)
(0.109536 -0.00127153 0)
(0.110235 -0.0013175 0)
(0.110944 -0.00136278 0)
(0.111662 -0.00140734 0)
(0.112388 -0.00145116 0)
(0.113121 -0.00149418 0)
(0.11386 -0.00153637 0)
(0.114603 -0.00157768 0)
(0.115351 -0.00161808 0)
(0.116103 -0.00165752 0)
(0.116856 -0.00169594 0)
(0.117611 -0.00173331 0)
(0.118367 -0.00176957 0)
(0.119122 -0.00180465 0)
(0.119877 -0.00183849 0)
(0.120629 -0.00187102 0)
(0.121379 -0.00190214 0)
(0.122126 -0.00193174 0)
(0.122868 -0.00195972 0)
(0.123606 -0.00198593 0)
(0.124338 -0.00201021 0)
(0.125063 -0.00203237 0)
(0.125781 -0.0020522 0)
(0.126491 -0.00206945 0)
(0.127192 -0.00208383 0)
(0.127884 -0.00209504 0)
(0.128564 -0.00210269 0)
(0.129233 -0.00210637 0)
(0.129889 -0.0021056 0)
(0.130532 -0.00209983 0)
(0.131159 -0.00208845 0)
(0.13177 -0.00207075 0)
(0.132363 -0.00204591 0)
(0.132937 -0.00201299 0)
(0.133491 -0.00197091 0)
(0.134022 -0.00191843 0)
(0.134529 -0.00185409 0)
(0.13501 -0.00177619 0)
(0.135463 -0.00168273 0)
(0.135885 -0.00157134 0)
(0.136275 -0.00143924 0)
(0.136628 -0.00128306 0)
(0.136944 -0.00109879 0)
(0.137217 -0.000881576 0)
(0.137446 -0.000625522 0)
(0.137627 -0.000323444 0)
(0.137756 3.34287e-05 0)
(0.137831 0.000455651 0)
(0.137849 0.000956427 0)
(0.13781 0.00155205 0)
(0.137715 0.00226249 0)
(0.137568 0.00311199 0)
(0.137381 0.00412952 0)
(0.137171 0.00534873 0)
(0.136971 0.00680664 0)
(0.136828 0.00854003 0)
(0.136815 0.0105772 0)
(0.137027 0.0129216 0)
(0.137583 0.015523 0)
(0.138603 0.0182338 0)
(0.140142 0.020763 0)
(0.100016 -0.000116739 0)
(0.100124 -0.000227584 0)
(0.1003 -0.000327272 0)
(0.100532 -0.000418985 0)
(0.100814 -0.00050461 0)
(0.101141 -0.000585443 0)
(0.101509 -0.000662399 0)
(0.101914 -0.000736186 0)
(0.102353 -0.000807348 0)
(0.102822 -0.000876311 0)
(0.103319 -0.000943412 0)
(0.103841 -0.00100892 0)
(0.104388 -0.00107306 0)
(0.104956 -0.00113599 0)
(0.105544 -0.00119786 0)
(0.106151 -0.00125876 0)
(0.106775 -0.00131877 0)
(0.107415 -0.00137794 0)
(0.108069 -0.00143629 0)
(0.108736 -0.00149383 0)
(0.109416 -0.00155055 0)
(0.110106 -0.00160645 0)
(0.110806 -0.00166148 0)
(0.111514 -0.00171562 0)
(0.112231 -0.00176881 0)
(0.112954 -0.00182102 0)
(0.113682 -0.00187218 0)
(0.114416 -0.00192226 0)
(0.115153 -0.00197119 0)
(0.115893 -0.00201892 0)
(0.116635 -0.0020654 0)
(0.117378 -0.00211055 0)
(0.118121 -0.00215432 0)
(0.118864 -0.00219664 0)
(0.119605 -0.00223741 0)
(0.120345 -0.00227655 0)
(0.121081 -0.00231395 0)
(0.121814 -0.00234948 0)
(0.122542 -0.002383 0)
(0.123265 -0.00241434 0)
(0.123982 -0.0024433 0)
(0.124693 -0.00246967 0)
(0.125395 -0.00249318 0)
(0.12609 -0.00251354 0)
(0.126776 -0.0025304 0)
(0.127451 -0.00254339 0)
(0.128116 -0.00255207 0)
(0.128768 -0.00255593 0)
(0.129408 -0.00255442 0)
(0.130035 -0.00254688 0)
(0.130646 -0.0025326 0)
(0.131241 -0.00251073 0)
(0.131819 -0.00248033 0)
(0.132379 -0.00244032 0)
(0.132918 -0.00238945 0)
(0.133437 -0.00232628 0)
(0.133932 -0.00224916 0)
(0.134403 -0.00215617 0)
(0.134847 -0.00204508 0)
(0.135264 -0.00191328 0)
(0.135651 -0.00175771 0)
(0.136006 -0.00157475 0)
(0.136327 -0.00136015 0)
(0.136612 -0.00110883 0)
(0.13686 -0.000814795 0)
(0.13707 -0.000470866 0)
(0.13724 -6.85381e-05 0)
(0.13737 0.000402054 0)
(0.137461 0.000952631 0)
(0.137517 0.0015971 0)
(0.137544 0.00235157 0)
(0.137551 0.00323428 0)
(0.137555 0.00426517 0)
(0.137578 0.00546489 0)
(0.137653 0.00685256 0)
(0.137825 0.00844195 0)
(0.13815 0.0102349 0)
(0.138696 0.0122112 0)
(0.139533 0.0143146 0)
(0.140718 0.0164363 0)
(0.142257 0.018408 0)
(0.100014 -0.000136893 0)
(0.100119 -0.000269035 0)
(0.100291 -0.00038785 0)
(0.100518 -0.000497333 0)
(0.100794 -0.000599592 0)
(0.101116 -0.000696113 0)
(0.101479 -0.00078798 0)
(0.101877 -0.000876032 0)
(0.102309 -0.000960919 0)
(0.102772 -0.00104315 0)
(0.103262 -0.00112313 0)
(0.103777 -0.00120118 0)
(0.104316 -0.00127756 0)
(0.104877 -0.00135248 0)
(0.105457 -0.00142609 0)
(0.106056 -0.00149852 0)
(0.106672 -0.00156986 0)
(0.107302 -0.00164017 0)
(0.107947 -0.00170947 0)
(0.108605 -0.00177777 0)
(0.109275 -0.00184508 0)
(0.109955 -0.00191137 0)
(0.110644 -0.0019766 0)
(0.111342 -0.00204073 0)
(0.112047 -0.0021037 0)
(0.112758 -0.00216546 0)
(0.113475 -0.00222595 0)
(0.114196 -0.00228511 0)
(0.11492 -0.00234287 0)
(0.115647 -0.00239917 0)
(0.116375 -0.00245394 0)
(0.117104 -0.0025071 0)
(0.117833 -0.00255857 0)
(0.118562 -0.00260827 0)
(0.119288 -0.00265611 0)
(0.120012 -0.00270196 0)
(0.120733 -0.00274571 0)
(0.121449 -0.0027872 0)
(0.122161 -0.00282626 0)
(0.122868 -0.00286271 0)
(0.123568 -0.0028963 0)
(0.124261 -0.00292679 0)
(0.124946 -0.00295386 0)
(0.125623 -0.00297717 0)
(0.126291 -0.00299634 0)
(0.126948 -0.00301091 0)
(0.127595 -0.00302039 0)
(0.128229 -0.00302419 0)
(0.128851 -0.00302167 0)
(0.12946 -0.00301211 0)
(0.130053 -0.00299466 0)
(0.130631 -0.0029684 0)
(0.131193 -0.00293225 0)
(0.131736 -0.00288501 0)
(0.132261 -0.00282529 0)
(0.132765 -0.00275153 0)
(0.133248 -0.00266191 0)
(0.133708 -0.00255438 0)
(0.134145 -0.00242656 0)
(0.134556 -0.0022757 0)
(0.134941 -0.00209863 0)
(0.135298 -0.00189167 0)
(0.135628 -0.00165057 0)
(0.135928 -0.00137038 0)
(0.136198 -0.00104537 0)
(0.13644 -0.00066891 0)
(0.136653 -0.000233393 0)
(0.136841 0.000269795 0)
(0.137006 0.000850022 0)
(0.137155 0.00151794 0)
(0.137297 0.00228508 0)
(0.137443 0.00316338 0)
(0.137611 0.00416442 0)
(0.137823 0.00529804 0)
(0.138108 0.00657042 0)
(0.138499 0.00798109 0)
(0.139037 0.00951891 0)
(0.139763 0.011157 0)
(0.140716 0.0128474 0)
(0.141918 0.014517 0)
(0.14336 0.0160709 0)
(0.100011 -0.000157673 0)
(0.100115 -0.000312111 0)
(0.100282 -0.000451088 0)
(0.100503 -0.000579354 0)
(0.100774 -0.000699243 0)
(0.101089 -0.000812404 0)
(0.101445 -0.000920086 0)
(0.101837 -0.00102326 0)
(0.102261 -0.00112269 0)
(0.102716 -0.00121897 0)
(0.103198 -0.00131257 0)
(0.103706 -0.00140387 0)
(0.104236 -0.00149317 0)
(0.104788 -0.00158072 0)
(0.105359 -0.0016667 0)
(0.105948 -0.00175126 0)
(0.106554 -0.0018345 0)
(0.107175 -0.00191649 0)
(0.107809 -0.00199727 0)
(0.108456 -0.00207684 0)
(0.109114 -0.0021552 0)
(0.109782 -0.00223233 0)
(0.110459 -0.00230817 0)
(0.111144 -0.00238269 0)
(0.111836 -0.00245581 0)
(0.112534 -0.00252747 0)
(0.113237 -0.0025976 0)
(0.113944 -0.00266613 0)
(0.114653 -0.00273298 0)
(0.115365 -0.00279807 0)
(0.116078 -0.00286132 0)
(0.116792 -0.00292265 0)
(0.117504 -0.00298196 0)
(0.118216 -0.00303916 0)
(0.118925 -0.00309412 0)
(0.119632 -0.00314672 0)
(0.120335 -0.00319682 0)
(0.121033 -0.00324425 0)
(0.121727 -0.0032888 0)
(0.122414 -0.00333026 0)
(0.123095 -0.00336837 0)
(0.123769 -0.00340282 0)
(0.124435 -0.00343328 0)
(0.125092 -0.00345935 0)
(0.12574 -0.00348059 0)
(0.126377 -0.00349651 0)
(0.127004 -0.00350654 0)
(0.127618 -0.00351003 0)
(0.128221 -0.00350626 0)
(0.128809 -0.00349443 0)
(0.129384 -0.00347363 0)
(0.129943 -0.00344282 0)
(0.130486 -0.00340086 0)
(0.131013 -0.00334643 0)
(0.131521 -0.00327807 0)
(0.132011 -0.00319412 0)
(0.132482 -0.00309268 0)
(0.132931 -0.00297163 0)
(0.13336 -0.00282856 0)
(0.133767 -0.0026607 0)
(0.134151 -0.00246495 0)
(0.134512 -0.00223776 0)
(0.134851 -0.00197512 0)
(0.135167 -0.00167251 0)
(0.135461 -0.00132482 0)
(0.135736 -0.000926367 0)
(0.135993 -0.000470858 0)
(0.136237 4.85927e-05 0)
(0.136473 0.00063882 0)
(0.136707 0.00130692 0)
(0.136949 0.00206003 0)
(0.137213 0.00290458 0)
(0.137512 0.00384551 0)
(0.137866 0.0048851 0)
(0.138297 0.00602162 0)
(0.138828 0.00724748 0)
(0.139486 0.00854727 0)
(0.140294 0.0098958 0)
(0.14127 0.0112568 0)
(0.14242 0.0125833 0)
(0.143732 0.0138219 0)
(0.100009 -0.000179103 0)
(0.10011 -0.000356793 0)
(0.100272 -0.000516958 0)
(0.100488 -0.00066501 0)
(0.100752 -0.000803521 0)
(0.101061 -0.000934281 0)
(0.101409 -0.0010587 0)
(0.101792 -0.00117787 0)
(0.102209 -0.00129268 0)
(0.102655 -0.00140379 0)
(0.103128 -0.00151176 0)
(0.103626 -0.00161703 0)
(0.104147 -0.00171993 0)
(0.104689 -0.00182077 0)
(0.105249 -0.00191974 0)
(0.105828 -0.00201702 0)
(0.106422 -0.00211273 0)
(0.107031 -0.00220693 0)
(0.107653 -0.00229969 0)
(0.108288 -0.002391 0)
(0.108933 -0.00248087 0)
(0.109588 -0.00256925 0)
(0.110251 -0.00265611 0)
(0.110922 -0.00274138 0)
(0.111599 -0.00282498 0)
(0.112282 -0.00290685 0)
(0.112969 -0.0029869 0)
(0.11366 -0.00306503 0)
(0.114353 -0.00314118 0)
(0.115048 -0.00321524 0)
(0.115744 -0.00328712 0)
(0.116439 -0.00335673 0)
(0.117134 -0.00342395 0)
(0.117827 -0.00348868 0)
(0.118517 -0.00355078 0)
(0.119204 -0.00361011 0)
(0.119888 -0.00366651 0)
(0.120566 -0.00371977 0)
(0.121239 -0.00376969 0)
(0.121906 -0.00381602 0)
(0.122566 -0.00385845 0)
(0.123218 -0.00389667 0)
(0.123863 -0.00393028 0)
(0.124498 -0.00395887 0)
(0.125124 -0.00398193 0)
(0.12574 -0.00399893 0)
(0.126345 -0.00400925 0)
(0.126938 -0.00401217 0)
(0.127518 -0.00400694 0)
(0.128086 -0.00399268 0)
(0.12864 -0.00396841 0)
(0.12918 -0.00393304 0)
(0.129704 -0.00388536 0)
(0.130213 -0.00382402 0)
(0.130705 -0.0037475 0)
(0.13118 -0.0036541 0)
(0.131637 -0.00354194 0)
(0.132077 -0.00340891 0)
(0.132498 -0.00325266 0)
(0.1329 -0.00307056 0)
(0.133284 -0.00285971 0)
(0.13365 -0.00261689 0)
(0.133999 -0.00233854 0)
(0.134331 -0.00202078 0)
(0.13465 -0.0016594 0)
(0.134956 -0.0012499 0)
(0.135255 -0.000787556 0)
(0.13555 -0.000267451 0)
(0.135847 0.000315239 0)
(0.136154 0.00096416 0)
(0.136479 0.00168272 0)
(0.136833 0.00247315 0)
(0.13723 0.00333585 0)
(0.137682 0.00426859 0)
(0.138207 0.00526568 0)
(0.138818 0.00631714 0)
(0.139531 0.00740791 0)
(0.140359 0.00851747 0)
(0.141308 0.00962005 0)
(0.142377 0.010686 0)
(0.143556 0.0116852 0)
(0.100006 -0.000201204 0)
(0.100105 -0.000403061 0)
(0.100263 -0.000585421 0)
(0.100472 -0.000754248 0)
(0.10073 -0.000912363 0)
(0.10103 -0.00106168 0)
(0.10137 -0.00120374 0)
(0.101745 -0.00133979 0)
(0.102152 -0.00147081 0)
(0.102589 -0.00159755 0)
(0.103052 -0.00172065 0)
(0.103539 -0.0018406 0)
(0.104049 -0.0019578 0)
(0.10458 -0.00207256 0)
(0.105129 -0.00218514 0)
(0.105695 -0.00229571 0)
(0.106276 -0.00240443 0)
(0.106872 -0.00251137 0)
(0.107481 -0.00261659 0)
(0.108101 -0.0027201 0)
(0.108732 -0.0028219 0)
(0.109372 -0.00292193 0)
(0.11002 -0.00302016 0)
(0.110675 -0.0031165 0)
(0.111335 -0.00321089 0)
(0.112001 -0.00330322 0)
(0.112671 -0.0033934 0)
(0.113344 -0.00348134 0)
(0.114019 -0.00356694 0)
(0.114695 -0.00365009 0)
(0.115372 -0.00373068 0)
(0.116048 -0.00380861 0)
(0.116722 -0.00388376 0)
(0.117395 -0.003956 0)
(0.118064 -0.00402518 0)
(0.11873 -0.00409114 0)
(0.119392 -0.00415371 0)
(0.120048 -0.00421266 0)
(0.120699 -0.00426776 0)
(0.121343 -0.00431873 0)
(0.12198 -0.00436526 0)
(0.122609 -0.00440698 0)
(0.12323 -0.00444348 0)
(0.123843 -0.0044743 0)
(0.124445 -0.00449891 0)
(0.125037 -0.00451672 0)
(0.125619 -0.00452707 0)
(0.126189 -0.00452922 0)
(0.126747 -0.00452236 0)
(0.127293 -0.00450556 0)
(0.127825 -0.00447783 0)
(0.128344 -0.00443804 0)
(0.128849 -0.00438496 0)
(0.129339 -0.00431722 0)
(0.129814 -0.00423332 0)
(0.130274 -0.00413159 0)
(0.130718 -0.00401023 0)
(0.131147 -0.00386724 0)
(0.131561 -0.00370043 0)
(0.13196 -0.00350743 0)
(0.132344 -0.00328567 0)
(0.132714 -0.00303239 0)
(0.133073 -0.00274465 0)
(0.133421 -0.00241935 0)
(0.133761 -0.0020533 0)
(0.134096 -0.00164327 0)
(0.13443 -0.00118609 0)
(0.134768 -0.000678743 0)
(0.135115 -0.000118479 0)
(0.135479 0.000496582 0)
(0.135867 0.00116654 0)
(0.136287 0.00189079 0)
(0.136749 0.00266706 0)
(0.137263 0.00349093 0)
(0.137838 0.00435544 0)
(0.138486 0.00525078 0)
(0.139212 0.00616418 0)
(0.140023 0.00708011 0)
(0.140919 0.00798088 0)
(0.141899 0.0088479 0)
(0.142952 0.00966378 0)
(0.100004 -0.000223988 0)
(0.100101 -0.000450886 0)
(0.100253 -0.000656426 0)
(0.100456 -0.000846996 0)
(0.100706 -0.00102567 0)
(0.100998 -0.00119449 0)
(0.101329 -0.00135511 0)
(0.101695 -0.0015089 0)
(0.102092 -0.00165695 0)
(0.102518 -0.00180012 0)
(0.10297 -0.00193909 0)
(0.103445 -0.00207443 0)
(0.103943 -0.00220659 0)
(0.104461 -0.00233591 0)
(0.104997 -0.00246269 0)
(0.105549 -0.00258713 0)
(0.106117 -0.00270938 0)
(0.106698 -0.00282955 0)
(0.107291 -0.00294769 0)
(0.107896 -0.00306382 0)
(0.108511 -0.00317792 0)
(0.109134 -0.00328996 0)
(0.109765 -0.00339987 0)
(0.110402 -0.00350758 0)
(0.111045 -0.00361298 0)
(0.111692 -0.00371598 0)
(0.112343 -0.00381647 0)
(0.112996 -0.00391434 0)
(0.113651 -0.00400948 0)
(0.114307 -0.00410178 0)
(0.114962 -0.00419111 0)
(0.115616 -0.00427734 0)
(0.116269 -0.00436036 0)
(0.116919 -0.00444001 0)
(0.117566 -0.00451614 0)
(0.118209 -0.00458858 0)
(0.118847 -0.00465711 0)
(0.119479 -0.00472153 0)
(0.120106 -0.00478156 0)
(0.120726 -0.0048369 0)
(0.121338 -0.00488723 0)
(0.121943 -0.00493216 0)
(0.122539 -0.00497124 0)
(0.123126 -0.00500398 0)
(0.123704 -0.00502984 0)
(0.124271 -0.0050482 0)
(0.124828 -0.00505836 0)
(0.125374 -0.00505957 0)
(0.125908 -0.00505099 0)
(0.126431 -0.00503168 0)
(0.126941 -0.00500064 0)
(0.127438 -0.00495675 0)
(0.127923 -0.00489878 0)
(0.128394 -0.00482543 0)
(0.128852 -0.00473523 0)
(0.129296 -0.00462665 0)
(0.129728 -0.004498 0)
(0.130146 -0.00434747 0)
(0.130552 -0.00417315 0)
(0.130946 -0.003973 0)
(0.13133 -0.00374489 0)
(0.131704 -0.00348659 0)
(0.13207 -0.00319585 0)
(0.132431 -0.00287043 0)
(0.132789 -0.00250813 0)
(0.133148 -0.00210693 0)
(0.13351 -0.00166505 0)
(0.133881 -0.0011811 0)
(0.134266 -0.000654093 0)
(0.13467 -8.35569e-05 0)
(0.1351 0.000529609 0)
(0.135562 0.00118243 0)
(0.136062 0.00187133 0)
(0.136607 0.00259124 0)
(0.137203 0.00333541 0)
(0.137855 0.00409538 0)
(0.138566 0.00486112 0)
(0.139339 0.00562136 0)
(0.140173 0.00636417 0)
(0.141063 0.00707782 0)
(0.142002 0.00775221 0)
(0.100001 -0.000247458 0)
(0.100096 -0.000500229 0)
(0.100244 -0.000729895 0)
(0.10044 -0.000943147 0)
(0.100682 -0.00114332 0)
(0.100965 -0.00133255 0)
(0.101286 -0.00151261 0)
(0.101641 -0.001685 0)
(0.102027 -0.0018509 0)
(0.102441 -0.00201125 0)
(0.102881 -0.00216683 0)
(0.103344 -0.00231825 0)
(0.103828 -0.00246601 0)
(0.104332 -0.00261051 0)
(0.104854 -0.00275206 0)
(0.105391 -0.00289089 0)
(0.105943 -0.00302717 0)
(0.106508 -0.00316102 0)
(0.107085 -0.00329249 0)
(0.107672 -0.00342162 0)
(0.108269 -0.00354838 0)
(0.108874 -0.00367272 0)
(0.109486 -0.00379458 0)
(0.110104 -0.00391387 0)
(0.110727 -0.00403047 0)
(0.111354 -0.00414429 0)
(0.111984 -0.00425519 0)
(0.112616 -0.00436306 0)
(0.113248 -0.00446777 0)
(0.113882 -0.0045692 0)
(0.114514 -0.0046672 0)
(0.115145 -0.00476165 0)
(0.115774 -0.0048524 0)
(0.1164 -0.0049393 0)
(0.117022 -0.00502218 0)
(0.11764 -0.00510085 0)
(0.118253 -0.0051751 0)
(0.11886 -0.00524468 0)
(0.11946 -0.00530933 0)
(0.120054 -0.00536873 0)
(0.12064 -0.00542252 0)
(0.121219 -0.00547031 0)
(0.121788 -0.00551163 0)
(0.122349 -0.00554599 0)
(0.122901 -0.00557282 0)
(0.123442 -0.00559148 0)
(0.123973 -0.00560127 0)
(0.124494 -0.00560144 0)
(0.125003 -0.00559115 0)
(0.125502 -0.00556947 0)
(0.125989 -0.00553542 0)
(0.126464 -0.00548793 0)
(0.126928 -0.00542583 0)
(0.127379 -0.00534788 0)
(0.12782 -0.00525278 0)
(0.128248 -0.0051391 0)
(0.128666 -0.00500538 0)
(0.129074 -0.00485006 0)
(0.129471 -0.00467154 0)
(0.12986 -0.00446818 0)
(0.130242 -0.00423834 0)
(0.130618 -0.00398037 0)
(0.130989 -0.0036927 0)
(0.131359 -0.00337388 0)
(0.13173 -0.00302264 0)
(0.132105 -0.00263797 0)
(0.132487 -0.00221923 0)
(0.13288 -0.00176621 0)
(0.133289 -0.00127925 0)
(0.133717 -0.000759209 0)
(0.13417 -0.00020743 0)
(0.134653 0.000373677 0)
(0.135169 0.000979113 0)
(0.135722 0.00160386 0)
(0.136315 0.00224204 0)
(0.136951 0.0028869 0)
(0.137631 0.00353091 0)
(0.138355 0.00416612 0)
(0.139121 0.00478452 0)
(0.139925 0.00537869 0)
(0.140762 0.00594268 0)
(0.0999976 -0.000271598 0)
(0.100091 -0.00055103 0)
(0.100234 -0.00080572 0)
(0.100423 -0.00104255 0)
(0.100656 -0.00126511 0)
(0.10093 -0.00147563 0)
(0.101241 -0.00167599 0)
(0.101585 -0.00186779 0)
(0.101959 -0.00205232 0)
(0.10236 -0.0022306 0)
(0.102787 -0.00240349 0)
(0.103236 -0.00257164 0)
(0.103705 -0.00273563 0)
(0.104194 -0.00289587 0)
(0.104699 -0.00305271 0)
(0.10522 -0.00320642 0)
(0.105755 -0.00335719 0)
(0.106302 -0.00350512 0)
(0.106861 -0.0036503 0)
(0.10743 -0.00379275 0)
(0.108007 -0.00393244 0)
(0.108592 -0.00406933 0)
(0.109183 -0.00420334 0)
(0.10978 -0.00433436 0)
(0.110381 -0.00446229 0)
(0.110986 -0.00458699 0)
(0.111593 -0.00470834 0)
(0.112202 -0.0048262 0)
(0.112811 -0.00494043 0)
(0.11342 -0.00505088 0)
(0.114027 -0.00515743 0)
(0.114633 -0.00525992 0)
(0.115237 -0.0053582 0)
(0.115836 -0.0054521 0)
(0.116432 -0.00554145 0)
(0.117023 -0.00562605 0)
(0.117609 -0.00570567 0)
(0.118189 -0.00578007 0)
(0.118762 -0.00584897 0)
(0.119328 -0.00591204 0)
(0.119886 -0.00596892 0)
(0.120437 -0.0060192 0)
(0.120979 -0.00606242 0)
(0.121512 -0.00609808 0)
(0.122036 -0.0061256 0)
(0.12255 -0.00614436 0)
(0.123055 -0.00615367 0)
(0.123549 -0.00615278 0)
(0.124033 -0.00614089 0)
(0.124506 -0.00611711 0)
(0.124969 -0.00608052 0)
(0.125422 -0.0060301 0)
(0.125864 -0.00596482 0)
(0.126296 -0.00588354 0)
(0.126718 -0.00578511 0)
(0.12713 -0.00566832 0)
(0.127534 -0.00553193 0)
(0.127929 -0.0053747 0)
(0.128318 -0.00519537 0)
(0.1287 -0.00499271 0)
(0.129077 -0.00476556 0)
(0.129452 -0.00451283 0)
(0.129825 -0.00423359 0)
(0.130199 -0.00392706 0)
(0.130577 -0.00359273 0)
(0.130961 -0.00323039 0)
(0.131353 -0.0028402 0)
(0.131757 -0.00242275 0)
(0.132177 -0.00197916 0)
(0.132615 -0.00151104 0)
(0.133075 -0.00102051 0)
(0.13356 -0.000510098 0)
(0.134074 1.75257e-05 0)
(0.134617 0.000557678 0)
(0.135192 0.00110451 0)
(0.135799 0.00165276 0)
(0.136437 0.00219689 0)
(0.137106 0.00273142 0)
(0.137805 0.00325104 0)
(0.138529 0.00375104 0)
(0.139275 0.0042279 0)
(0.0999942 -0.000296381 0)
(0.100085 -0.000603204 0)
(0.100224 -0.000883752 0)
(0.100405 -0.00114502 0)
(0.10063 -0.0013908 0)
(0.100894 -0.00162344 0)
(0.101193 -0.0018449 0)
(0.101525 -0.00205688 0)
(0.101886 -0.00226077 0)
(0.102274 -0.00245768 0)
(0.102686 -0.00264851 0)
(0.103119 -0.00283402 0)
(0.103573 -0.00301479 0)
(0.104045 -0.0031913 0)
(0.104533 -0.00336392 0)
(0.105036 -0.00353295 0)
(0.105552 -0.00369857 0)
(0.10608 -0.00386094 0)
(0.106619 -0.00402013 0)
(0.107167 -0.00417615 0)
(0.107723 -0.004329 0)
(0.108286 -0.0044786 0)
(0.108855 -0.00462488 0)
(0.109429 -0.00476772 0)
(0.110007 -0.00490701 0)
(0.110587 -0.00504259 0)
(0.11117 -0.00517433 0)
(0.111753 -0.00530208 0)
(0.112337 -0.00542569 0)
(0.11292 -0.005545 0)
(0.113501 -0.00565987 0)
(0.11408 -0.00577014 0)
(0.114656 -0.00587565 0)