/*--------------------------------*- C++ -*----------------------------------*\
| =========                 |                                                 |
| \\      /  F ield         | OpenFOAM: The Open Source CFD Toolbox           |
|  \\    /   O peration     | Version:  2106                                  |
|   \\  /    A nd           | Website:  www.openfoam.com                      |
|    \\/     M anipulation  |                                                 |
\*---------------------------------------------------------------------------*/
FoamFile
{
    version     2.0;
    format      ascii;
    arch        "LSB;label=32;scalar=64";
    class       surfaceScalarField;
    location    "9.2";
    object      phi;
}
// * * * * * * * * * * * * * * * * * * * * * * * * * * * * * * * * * * * * * //

dimensions      [1 0 -1 0 0 0 0];

oriented        oriented;

internalField   nonuniform List<scalar> 
23692
(
9.31896e-05
-1.10119e-07
9.33891e-05
-1.99565e-07
9.36685e-05
-2.79369e-07
9.40183e-05
-3.49739e-07
9.44311e-05
-4.12832e-07
9.49011e-05
-4.69955e-07
9.54231e-05
-5.21976e-07
9.59927e-05
-5.69591e-07
9.66061e-05
-6.13339e-07
9.72598e-05
-6.53647e-07
9.79507e-05
-6.90868e-07
9.8676e-05
-7.25295e-07
9.94332e-05
-7.57173e-07
0.00010022
-7.86708e-07
0.000101034
-8.14076e-07
0.000101874
-8.3943e-07
0.000102737
-8.62899e-07
0.000103621
-8.84596e-07
0.000104526
-9.04618e-07
0.000105449
-9.23053e-07
0.000106389
-9.39976e-07
0.000107345
-9.55451e-07
0.000108314
-9.6954e-07
0.000109297
-9.8229e-07
0.00011029
-9.93749e-07
0.000111294
-1.00396e-06
0.000112307
-1.01295e-06
0.000113328
-1.02076e-06
0.000114356
-1.02741e-06
0.000115389
-1.03294e-06
0.000116426
-1.03735e-06
0.000117467
-1.04067e-06
0.00011851
-1.04291e-06
0.000119554
-1.04408e-06
0.000120598
-1.0442e-06
0.000121641
-1.04328e-06
0.000122683
-1.0413e-06
0.000123721
-1.03828e-06
0.000124755
-1.03421e-06
0.000125785
-1.02908e-06
0.000126807
-1.02289e-06
0.000127823
-1.01562e-06
0.00012883
-1.00724e-06
0.000129828
-9.97741e-07
0.000130815
-9.87081e-07
0.000131791
-9.75225e-07
0.000132753
-9.62127e-07
0.0001337
-9.4773e-07
0.000134632
-9.31969e-07
0.000135547
-9.14765e-07
0.000136443
-8.96024e-07
0.000137319
-8.75638e-07
0.000138172
-8.53475e-07
0.000139002
-8.29379e-07
0.000139805
-8.03166e-07
0.00014058
-7.74616e-07
0.000141323
-7.43465e-07
0.000142032
-7.09393e-07
0.000142704
-6.72017e-07
0.000143335
-6.30866e-07
0.000143921
-5.85365e-07
0.000144455
-5.34801e-07
0.000144934
-4.78284e-07
0.000145348
-4.14691e-07
0.000145691
-3.42589e-07
0.000145951
-2.60126e-07
0.000146116
-1.64878e-07
0.00014617
-5.36296e-08
0.000146092
7.7997e-08
0.000145855
2.36139e-07
0.000145426
4.29513e-07
0.000144755
6.70818e-07
0.000143776
9.79063e-07
0.000142392
1.38355e-06
0.000140462
1.93083e-06
0.000137764
2.69708e-06
0.000133954
3.81002e-06
0.000128464
5.49028e-06
0.000120316
8.14771e-06
0.000107685
1.26315e-05
2.14059e-05
8.62789e-05
9.97139e-05
-2.25035e-07
9.99262e-05
-4.11906e-07
0.000100224
-5.77353e-07
0.000100597
-7.22985e-07
0.000101038
-8.53607e-07
0.00010154
-9.71856e-07
0.000102098
-1.07953e-06
0.000102706
-1.17808e-06
0.000103362
-1.26861e-06
0.00010406
-1.35202e-06
0.000104798
-1.42905e-06
0.000105573
-1.50028e-06
0.000106382
-1.56624e-06
0.000107223
-1.62734e-06
0.000108093
-1.68396e-06
0.00010899
-1.73641e-06
0.000109912
-1.78495e-06
0.000110857
-1.82982e-06
0.000111824
-1.87123e-06
0.000112811
-1.90936e-06
0.000113815
-1.94434e-06
0.000114836
-1.97634e-06
0.000115872
-2.00546e-06
0.000116921
-2.03181e-06
0.000117983
-2.05548e-06
0.000119056
-2.07657e-06
0.000120138
-2.09514e-06
0.000121229
-2.11126e-06
0.000122326
-2.12498e-06
0.00012343
-2.13637e-06
0.000124538
-2.14545e-06
0.00012565
-2.15227e-06
0.000126764
-2.15686e-06
0.000127879
-2.15925e-06
0.000128994
-2.15945e-06
0.000130109
-2.15747e-06
0.000131221
-2.15334e-06
0.000132329
-2.14703e-06
0.000133434
-2.13856e-06
0.000134533
-2.1279e-06
0.000135625
-2.11504e-06
0.000136709
-2.09994e-06
0.000137785
-2.08256e-06
0.00013885
-2.06285e-06
0.000139903
-2.04075e-06
0.000140944
-2.01618e-06
0.000141971
-1.98904e-06
0.000142983
-1.95923e-06
0.000143978
-1.92659e-06
0.000144954
-1.89098e-06
0.00014591
-1.85221e-06
0.000146844
-1.81004e-06
0.000147755
-1.76422e-06
0.00014864
-1.71442e-06
0.000149497
-1.66028e-06
0.000150324
-1.60133e-06
0.000151118
-1.53706e-06
0.000151875
-1.46681e-06
0.000152593
-1.3898e-06
0.000153267
-1.30509e-06
0.000153893
-1.21152e-06
0.000154466
-1.10767e-06
0.00015498
-9.91749e-07
0.000155426
-8.61532e-07
0.000155798
-7.14184e-07
0.000156084
-5.46065e-07
0.000156271
-3.52444e-07
0.000156345
-1.27087e-07
0.000156285
1.3835e-07
0.000156065
4.5536e-07
0.000155655
8.40013e-07
0.00015501
1.31517e-06
0.000154075
1.91403e-06
0.000152773
2.68587e-06
0.000150999
3.70517e-06
0.00014861
5.0861e-06
0.000145416
7.00385e-06
0.000141182
9.72361e-06
0.000135689
1.36408e-05
0.000129069
1.92519e-05
2.64177e-05
0.000124057
0.000106694
-3.4406e-07
0.000106919
-6.3676e-07
0.000107235
-8.93744e-07
0.000107632
-1.12009e-06
0.000108102
-1.32302e-06
0.000108637
-1.50669e-06
0.000109231
-1.6739e-06
0.00010988
-1.82692e-06
0.000110579
-1.96747e-06
0.000111324
-2.09696e-06
0.000112111
-2.21651e-06
0.000112938
-2.32707e-06
0.000113802
-2.42942e-06
0.000114698
-2.52424e-06
0.000115627
-2.61208e-06
0.000116584
-2.69344e-06
0.000117568
-2.76874e-06
0.000118576
-2.83833e-06
0.000119608
-2.90254e-06
0.00012066
-2.96164e-06
0.000121732
-3.01587e-06
0.000122821
-3.06545e-06
0.000123926
-3.11056e-06
0.000125046
-3.15137e-06
0.000126178
-3.18802e-06
0.000127322
-3.22065e-06
0.000128477
-3.24937e-06
0.00012964
-3.27428e-06
0.00013081
-3.29547e-06
0.000131987
-3.31302e-06
0.000133169
-3.327e-06
0.000134354
-3.33747e-06
0.000135541
-3.34446e-06
0.00013673
-3.34804e-06
0.000137919
-3.34822e-06
0.000139107
-3.34502e-06
0.000140292
-3.33846e-06
0.000141474
-3.32855e-06
0.00014265
-3.31526e-06
0.000143821
-3.29858e-06
0.000144984
-3.27848e-06
0.00014614
-3.25491e-06
0.000147285
-3.22781e-06
0.000148419
-3.1971e-06
0.000149541
-3.16268e-06
0.000150649
-3.12444e-06
0.000151743
-3.08222e-06
0.000152819
-3.03586e-06
0.000153878
-2.98516e-06
0.000154917
-2.92985e-06
0.000155934
-2.86967e-06
0.000156928
-2.80426e-06
0.000157897
-2.73322e-06
0.000158839
-2.65607e-06
0.000159751
-2.57226e-06
0.000160631
-2.48109e-06
0.000161476
-2.38178e-06
0.000162282
-2.27334e-06
0.000163047
-2.15463e-06
0.000163766
-2.02422e-06
0.000164435
-1.88042e-06
0.000165048
-1.72111e-06
0.0001656
-1.54368e-06
0.000166084
-1.3449e-06
0.00016649
-1.12067e-06
0.00016681
-8.65784e-07
0.000167031
-5.73562e-07
0.000167139
-2.35316e-07
0.000167117
1.60343e-07
0.000166944
6.28674e-07
0.000166593
1.19044e-06
0.000166034
1.87422e-06
0.000165229
2.71967e-06
0.000164132
3.78247e-06
0.000162696
5.14099e-06
0.000160877
6.90479e-06
0.000158659
9.22264e-06
0.0001561
1.22824e-05
0.000153461
1.62796e-05
0.000151462
2.12509e-05
2.64744e-05
0.000151405
0.000114163
-4.66902e-07
0.000114399
-8.73551e-07
0.000114734
-1.22836e-06
0.000115155
-1.54121e-06
0.000115654
-1.82159e-06
0.000116222
-2.07526e-06
0.000116855
-2.30615e-06
0.000117545
-2.5174e-06
0.000118289
-2.71142e-06
0.000119082
-2.89013e-06
0.000119921
-3.0551e-06
0.000120802
-3.20763e-06
0.000121721
-3.34883e-06
0.000122676
-3.4796e-06
0.000123665
-3.60074e-06
0.000124685
-3.71291e-06
0.000125733
-3.81671e-06
0.000126807
-3.91262e-06
0.000127906
-4.00109e-06
0.000129027
-4.0825e-06
0.000130168
-4.15718e-06
0.000131328
-4.22543e-06
0.000132505
-4.2875e-06
0.000133698
-4.34364e-06
0.000134904
-4.39403e-06
0.000136122
-4.43885e-06
0.000137351
-4.47827e-06
0.000138589
-4.51243e-06
0.000139835
-4.54145e-06
0.000141088
-4.56544e-06
0.000142345
-4.5845e-06
0.000143606
-4.5987e-06
0.00014487
-4.60811e-06
0.000146135
-4.61279e-06
0.0001474
-4.61278e-06
0.000148663
-4.60812e-06
0.000149923
-4.59881e-06
0.00015118
-4.58487e-06
0.000152431
-4.56627e-06
0.000153675
-4.543e-06
0.000154912
-4.51501e-06
0.000156139
-4.48224e-06
0.000157356
-4.44461e-06
0.000158561
-4.40201e-06
0.000159753
-4.35431e-06
0.000160929
-4.30134e-06
0.00016209
-4.24293e-06
0.000163233
-4.17882e-06
0.000164357
-4.10876e-06
0.000165459
-4.03241e-06
0.000166539
-3.94939e-06
0.000167594
-3.85923e-06
0.000168622
-3.76142e-06
0.000169622
-3.6553e-06
0.00017059
-3.54013e-06
0.000171523
-3.41501e-06
0.000172421
-3.2789e-06
0.000173278
-3.13051e-06
0.000174091
-2.96835e-06
0.000174858
-2.79059e-06
0.000175572
-2.59501e-06
0.00017623
-2.37892e-06
0.000176826
-2.13903e-06
0.000177352
-1.87125e-06
0.000177802
-1.57052e-06
0.000178166
-1.23047e-06
0.000178436
-8.43058e-07
0.000178599
-3.9804e-07
0.000178641
1.17652e-07
0.000178549
7.20974e-07
0.000178305
1.43397e-06
0.000177894
2.28583e-06
0.000177299
3.31479e-06
0.00017651
4.57081e-06
0.000175533
6.11822e-06
0.000174401
8.03701e-06
0.000173204
1.04195e-05
0.000172133
1.33535e-05
0.000171538
1.68746e-05
0.000171949
2.08396e-05
2.46582e-05
0.000173765
0.000122154
-5.93425e-07
0.000122402
-1.12182e-06
0.000122755
-1.58094e-06
0.0001232
-1.98637e-06
0.000123728
-2.34963e-06
0.000124331
-2.67817e-06
0.000125002
-2.97716e-06
0.000125735
-3.25064e-06
0.000126525
-3.50176e-06
0.000127368
-3.73301e-06
0.00012826
-3.94645e-06
0.000129196
-4.14376e-06
0.000130174
-4.32636e-06
0.00013119
-4.49545e-06
0.000132241
-4.65205e-06
0.000133325
-4.79702e-06
0.00013444
-4.93113e-06
0.000135582
-5.05502e-06
0.00013675
-5.16926e-06
0.000137942
-5.27435e-06
0.000139156
-5.37071e-06
0.000140389
-5.45874e-06
0.000141641
-5.53876e-06
0.000142908
-5.61107e-06
0.00014419
-5.67595e-06
0.000145485
-5.73361e-06
0.000146791
-5.78427e-06
0.000148107
-5.8281e-06
0.000149431
-5.86528e-06
0.000150761
-5.89594e-06
0.000152097
-5.9202e-06
0.000153437
-5.93817e-06
0.000154779
-5.94995e-06
0.000156121
-5.95559e-06
0.000157464
-5.95516e-06
0.000158804
-5.94871e-06
0.000160142
-5.93624e-06
0.000161475
-5.91778e-06
0.000162802
-5.8933e-06
0.000164122
-5.86278e-06
0.000165433
-5.82617e-06
0.000166734
-5.78338e-06
0.000168024
-5.73432e-06
0.000169301
-5.67885e-06
0.000170563
-5.61681e-06
0.00017181
-5.54801e-06
0.00017304
-5.4722e-06
0.00017425
-5.3891e-06
0.000175439
-5.29836e-06
0.000176607
-5.19958e-06
0.00017775
-5.09228e-06
0.000178866
-4.9759e-06
0.000179955
-4.84979e-06
0.000181012
-4.71315e-06
0.000182037
-4.56508e-06
0.000183027
-4.40449e-06
0.000183978
-4.2301e-06
0.000184888
-4.04038e-06
0.000185753
-3.83354e-06
0.00018657
-3.60741e-06
0.000187334
-3.35938e-06
0.000188042
-3.08633e-06
0.000188687
-2.78446e-06
0.000189265
-2.44915e-06
0.000189769
-2.07472e-06
0.000190193
-1.6542e-06
0.000190529
-1.17898e-06
0.000190769
-6.38332e-07
0.000190906
-1.9171e-08
0.000190932
6.95266e-07
0.000190841
1.52478e-06
0.000190632
2.49498e-06
0.000190309
3.6369e-06
0.000189893
4.98768e-06
0.000189421
6.5899e-06
0.000188969
8.48871e-06
0.000188665
1.07238e-05
0.000188706
1.33119e-05
0.00018937
1.62108e-05
0.000190955
1.92547e-05
2.20583e-05
0.000193555
0.000130704
-7.23631e-07
0.000130964
-1.38119e-06
0.000131334
-1.95124e-06
0.000131803
-2.45547e-06
0.000132361
-2.90731e-06
0.000132998
-3.31587e-06
0.000133709
-3.6876e-06
0.000134486
-4.02754e-06
0.000135324
-4.3396e-06
0.000136218
-4.62691e-06
0.000137163
-4.89203e-06
0.000138157
-5.13705e-06
0.000139194
-5.36375e-06
0.000140272
-5.57362e-06
0.000141388
-5.76793e-06
0.000142539
-5.94777e-06
0.000143722
-6.11407e-06
0.000144935
-6.26765e-06
0.000146175
-6.40921e-06
0.00014744
-6.53937e-06
0.000148728
-6.65867e-06
0.000150037
-6.76759e-06
0.000151365
-6.86654e-06
0.00015271
-6.95591e-06
0.00015407
-7.036e-06
0.000155444
-7.10711e-06
0.000156829
-7.16951e-06
0.000158224
-7.22342e-06
0.000159628
-7.26904e-06
0.000161039
-7.30655e-06
0.000162455
-7.3361e-06
0.000163875
-7.35782e-06
0.000165297
-7.37184e-06
0.000166719
-7.37823e-06
0.000168141
-7.37708e-06
0.000169561
-7.36843e-06
0.000170977
-7.35233e-06
0.000172388
-7.32877e-06
0.000173793
-7.29776e-06
0.000175189
-7.25925e-06
0.000176576
-7.21319e-06
0.000177953
-7.15949e-06
0.000179316
-7.09803e-06
0.000180666
-7.02865e-06
0.000182001
-6.95117e-06
0.000183318
-6.86536e-06
0.000184617
-6.77092e-06
0.000185895
-6.66752e-06
0.000187152
-6.55477e-06
0.000188384
-6.43219e-06
0.000189591
-6.29921e-06
0.00019077
-6.1552e-06
0.00019192
-5.99938e-06
0.000193038
-5.83085e-06
0.000194121
-5.64856e-06
0.000195168
-5.45128e-06
0.000196176
-5.23755e-06
0.000197141
-5.00565e-06
0.000198061
-4.75357e-06
0.000198932
-4.47892e-06
0.000199752
-4.17886e-06
0.000200516
-3.85e-06
0.000201219
-3.48833e-06
0.000201859
-3.089e-06
0.000202431
-2.64625e-06
0.00020293
-2.1531e-06
0.000203352
-1.6012e-06
0.000203694
-9.80513e-07
0.000203954
-2.79092e-07
0.000204132
5.17214e-07
0.000204232
1.4244e-06
0.000204266
2.46143e-06
0.000204253
3.64953e-06
0.00020423
5.01114e-06
0.000204252
6.56785e-06
0.000204404
8.33623e-06
0.000204807
1.03205e-05
0.000205619
1.25004e-05
0.000207018
1.48115e-05
0.000209153
1.71194e-05
1.91961e-05
0.000212016
0.000139853
-8.57635e-07
0.000140124
-1.65142e-06
0.000140511
-2.33905e-06
0.000141004
-2.94838e-06
0.000141592
-3.49468e-06
0.000142265
-3.98861e-06
0.000143015
-4.43795e-06
0.000143836
-4.84877e-06
0.000144723
-5.22581e-06
0.000145669
-5.57287e-06
0.00014667
-5.89302e-06
0.000147721
-6.18884e-06
0.00014882
-6.46245e-06
0.000149962
-6.71567e-06
0.000151145
-6.95004e-06
0.000152364
-7.16687e-06
0.000153617
-7.36731e-06
0.000154902
-7.55234e-06
0.000156216
-7.72281e-06
0.000157556
-7.87948e-06
0.00015892
-8.02299e-06
0.000160307
-8.15393e-06
0.000161713
-8.2728e-06
0.000163137
-8.38006e-06
0.000164577
-8.47609e-06
0.000166032
-8.56125e-06
0.000167498
-8.63586e-06
0.000168975
-8.7002e-06
0.00017046
-8.7545e-06
0.000171953
-8.79899e-06
0.000173451
-8.83385e-06
0.000174952
-8.85925e-06
0.000176456
-8.87532e-06
0.00017796
-8.88218e-06
0.000179463
-8.87993e-06
0.000180963
-8.86862e-06
0.000182459
-8.84832e-06
0.00018395
-8.81902e-06
0.000185433
-8.78074e-06
0.000186907
-8.73343e-06
0.000188371
-8.67703e-06
0.000189823
-8.61145e-06
0.000191261
-8.53656e-06
0.000192685
-8.45217e-06
0.000194092
-8.35809e-06
0.000195481
-8.25406e-06
0.000196849
-8.13974e-06
0.000198197
-8.01477e-06
0.000199521
-7.8787e-06
0.00020082
-7.731e-06
0.000202091
-7.57105e-06
0.000203334
-7.39813e-06
0.000204546
-7.21139e-06
0.000205725
-7.00985e-06
0.000206869
-6.79237e-06
0.000207976
-6.5576e-06
0.000209042
-6.30399e-06
0.000210066
-6.02971e-06
0.000211045
-5.73266e-06
0.000211977
-5.41035e-06
0.000212858
-5.05987e-06
0.000213685
-4.67785e-06
0.000214457
-4.2603e-06
0.000215171
-3.80259e-06
0.000215824
-3.29929e-06
0.000216415
-2.74407e-06
0.000216943
-2.1296e-06
0.00021741
-1.44744e-06
0.000217819
-6.87983e-07
0.000218177
1.59485e-07
0.000218495
1.10608e-06
0.000218793
2.16316e-06
0.000219101
3.34224e-06
0.000219459
4.65297e-06
0.000219926
6.10093e-06
0.000220578
7.68423e-06
0.000221509
9.3886e-06
0.000222829
1.11809e-05
0.000224639
1.30011e-05
0.000227003
1.47552e-05
1.63149e-05
0.000229885
0.000149643
-9.95606e-07
0.000149924
-1.93235e-06
0.000150329
-2.7442e-06
0.000150846
-3.46496e-06
0.000151463
-4.1117e-06
0.000152171
-4.69651e-06
0.000152962
-5.2285e-06
0.000153828
-5.71482e-06
0.000154763
-6.16105e-06
0.000155762
-6.57169e-06
0.000156819
-6.95039e-06
0.000157931
-7.30019e-06
0.000159092
-7.62364e-06
0.000160299
-7.92288e-06
0.000161549
-8.19973e-06
0.000162838
-8.45578e-06
0.000164163
-8.69236e-06
0.000165522
-8.91064e-06
0.00016691
-9.11165e-06
0.000168327
-9.29627e-06
0.00016977
-9.46529e-06
0.000171235
-9.61937e-06
0.000172722
-9.75914e-06
0.000174227
-9.88512e-06
0.000175749
-9.99779e-06
0.000177285
-1.00976e-05
0.000178834
-1.01848e-05
0.000180394
-1.02599e-05
0.000181963
-1.03231e-05
0.000183538
-1.03746e-05
0.000185119
-1.04148e-05
0.000186704
-1.04437e-05
0.00018829
-1.04616e-05
0.000189877
-1.04685e-05
0.000191462
-1.04647e-05
0.000193043
-1.04502e-05
0.00019462
-1.04251e-05
0.000196191
-1.03893e-05
0.000197753
-1.0343e-05
0.000199305
-1.0286e-05
0.000200847
-1.02183e-05
0.000202375
-1.01398e-05
0.000203889
-1.00504e-05
0.000205387
-9.94991e-06
0.000206867
-9.83806e-06
0.000208328
-9.71459e-06
0.000209767
-9.57917e-06
0.000211184
-9.43138e-06
0.000212576
-9.27076e-06
0.000213942
-9.09675e-06
0.000215279
-8.90868e-06
0.000216587
-8.70579e-06
0.000217863
-8.4872e-06
0.000219105
-8.25188e-06
0.000220311
-7.99864e-06
0.00022148
-7.72611e-06
0.000222608
-7.43272e-06
0.000223695
-7.11665e-06
0.000224738
-6.7758e-06
0.000225736
-6.40777e-06
0.000226686
-6.00979e-06
0.000227587
-5.5787e-06
0.000228437
-5.11089e-06
0.000229237
-4.60224e-06
0.000229986
-4.04813e-06
0.000230685
-3.44335e-06
0.000231337
-2.78215e-06
0.000231948
-2.05829e-06
0.000232525
-1.26512e-06
0.000233081
-3.95744e-07
0.00023363
5.56343e-07
0.000234198
1.59579e-06
0.000234814
2.72593e-06
0.00023552
3.94719e-06
0.000236365
5.25521e-06
0.000237411
6.63868e-06
0.000238723
8.07685e-06
0.000240367
9.53691e-06
0.000242396
1.0972e-05
0.00024483
1.23209e-05
1.35133e-05
0.000247632
0.000160119
-1.13777e-06
0.00016041
-2.22388e-06
0.000160832
-3.16659e-06
0.000161373
-4.00506e-06
0.000162019
-4.75828e-06
0.000162762
-5.43959e-06
0.000163593
-6.0594e-06
0.000164504
-6.62595e-06
0.000165489
-7.14572e-06
0.000166541
-7.62391e-06
0.000167656
-8.06479e-06
0.000168828
-8.4719e-06
0.000170052
-8.84821e-06
0.000171326
-9.19621e-06
0.000172644
-9.51806e-06
0.000174004
-9.81558e-06
0.000175402
-1.00904e-05
0.000176835
-1.03437e-05
0.000178301
-1.05769e-05
0.000179796
-1.0791e-05
0.000181317
-1.09868e-05
0.000182863
-1.11651e-05
0.000184431
-1.13268e-05
0.000186018
-1.14723e-05
0.000187623
-1.16023e-05
0.000189242
-1.17172e-05
0.000190875
-1.18175e-05
0.000192519
-1.19036e-05
0.000194172
-1.19758e-05
0.000195832
-1.20344e-05
0.000197497
-1.20797e-05
0.000199165
-1.21119e-05
0.000200835
-1.21313e-05
0.000202504
-1.2138e-05
0.000204172
-1.21321e-05
0.000205836
-1.21138e-05
0.000207494
-1.20831e-05
0.000209145
-1.20401e-05
0.000210787
-1.19849e-05
0.000212418
-1.19173e-05
0.000214037
-1.18373e-05
0.000215642
-1.17449e-05
0.000217232
-1.16399e-05
0.000218804
-1.15221e-05
0.000220357
-1.13913e-05
0.00022189
-1.12472e-05
0.0002234
-1.10895e-05
0.000224887
-1.09178e-05
0.000226347
-1.07315e-05
0.000227781
-1.05302e-05
0.000229185
-1.03131e-05
0.000230559
-1.00794e-05
0.0002319
-9.82839e-06
0.000233207
-9.55893e-06
0.000234479
-9.26989e-06
0.000235712
-8.95995e-06
0.000236907
-8.62761e-06
0.000238062
-8.27114e-06
0.000239175
-7.88864e-06
0.000240245
-7.47791e-06
0.000241272
-7.03652e-06
0.000242255
-6.56177e-06
0.000243194
-6.05065e-06
0.000244092
-5.49987e-06
0.00024495
-4.9059e-06
0.000245771
-4.26497e-06
0.000246562
-3.57321e-06
0.000247331
-2.82675e-06
0.000248088
-2.02195e-06
0.000248847
-1.15564e-06
0.000249629
-2.25282e-07
0.000250455
7.69554e-07
0.000251355
1.82616e-06
0.000252363
2.93928e-06
0.000253518
4.09968e-06
0.000254864
5.29298e-06
0.000256442
6.49869e-06
0.000258289
7.68971e-06
0.000260429
8.83256e-06
0.00026286
9.8892e-06
1.08212e-05
0.000265552
0.000171327
-1.28433e-06
0.000171629
-2.52598e-06
0.000172069
-3.60612e-06
0.000172632
-4.56855e-06
0.000173309
-5.43425e-06
0.000174087
-6.21773e-06
0.000174958
-6.93062e-06
0.000175914
-7.58225e-06
0.000176949
-8.17999e-06
0.000178055
-8.72981e-06
0.000179227
-9.2366e-06
0.000180459
-9.70442e-06
0.000181748
-1.01367e-05
0.000183088
-1.05363e-05
0.000184476
-1.09057e-05
0.000185907
-1.1247e-05
0.000187379
-1.1562e-05
0.000188888
-1.18524e-05
0.00019043
-1.21195e-05
0.000192004
-1.23644e-05
0.000193605
-1.25883e-05
0.000195232
-1.2792e-05
0.000196882
-1.29765e-05
0.000198552
-1.31423e-05
0.00020024
-1.32902e-05
0.000201944
-1.34208e-05
0.000203661
-1.35345e-05
0.00020539
-1.36318e-05
0.000207127
-1.37131e-05
0.000208871
-1.37787e-05
0.000210621
-1.38291e-05
0.000212373
-1.38644e-05
0.000214127
-1.38848e-05
0.00021588
-1.38907e-05
0.00021763
-1.38822e-05
0.000219376
-1.38594e-05
0.000221115
-1.38225e-05
0.000222847
-1.37714e-05
0.000224568
-1.37063e-05
0.000226278
-1.36271e-05
0.000227975
-1.35339e-05
0.000229657
-1.34265e-05
0.000231322
-1.33048e-05
0.000232968
-1.31686e-05
0.000234595
-1.30178e-05
0.0002362
-1.2852e-05
0.000237781
-1.2671e-05
0.000239338
-1.24743e-05
0.000240868
-1.22615e-05
0.00024237
-1.2032e-05
0.000243842
-1.17852e-05
0.000245283
-1.15204e-05
0.000246691
-1.12368e-05
0.000248066
-1.09333e-05
0.000249405
-1.0609e-05
0.000250707
-1.02626e-05
0.000251973
-9.89286e-06
0.0002532
-9.49824e-06
0.000254388
-9.07711e-06
0.000255538
-8.62768e-06
0.000256649
-8.148e-06
0.000257724
-7.63597e-06
0.000258762
-7.0894e-06
0.000259768
-6.50599e-06
0.000260746
-5.88345e-06
0.000261701
-5.21956e-06
0.00026264
-4.5123e-06
0.000263573
-3.76005e-06
0.000264513
-2.96179e-06
0.000265474
-2.11733e-06
0.000266477
-1.22761e-06
0.000267541
-2.94667e-07
0.000268691
6.76501e-07
0.000269952
1.67778e-06
0.000271354
2.69792e-06
0.000272923
3.72324e-06
0.000274686
4.73636e-06
0.000276658
5.71697e-06
0.000278848
6.64249e-06
0.000281248
7.48977e-06
8.23803e-06
0.000283831
0.000183321
-1.4355e-06
0.000183634
-2.83863e-06
0.00018409
-4.06267e-06
0.000184677
-5.15524e-06
0.000185382
-6.1394e-06
0.000186195
-7.03071e-06
0.000187107
-7.84197e-06
0.000188108
-8.58356e-06
0.000189192
-9.26379e-06
0.000190351
-9.88938e-06
0.000191581
-1.04659e-05
0.000192874
-1.09978e-05
0.000194227
-1.14892e-05
0.000195634
-1.19433e-05
0.000197091
-1.23628e-05
0.000198595
-1.27503e-05
0.00020014
-1.31077e-05
0.000201725
-1.34369e-05
0.000203345
-1.37395e-05
0.000204998
-1.40168e-05
0.00020668
-1.42701e-05
0.000208388
-1.45003e-05
0.00021012
-1.47085e-05
0.000211874
-1.48954e-05
0.000213645
-1.50619e-05
0.000215433
-1.52085e-05
0.000217235
-1.53359e-05
0.000219048
-1.54446e-05
0.00022087
-1.5535e-05
0.000222699
-1.56076e-05
0.000224532
-1.56627e-05
0.000226369
-1.57007e-05
0.000228206
-1.57219e-05
0.000230042
-1.57265e-05
0.000231874
-1.57147e-05
0.000233702
-1.56867e-05
0.000235522
-1.56427e-05
0.000237334
-1.55827e-05
0.000239134
-1.55068e-05
0.000240922
-1.54151e-05
0.000242696
-1.53076e-05
0.000244454
-1.51841e-05
0.000246194
-1.50447e-05
0.000247914
-1.48891e-05
0.000249614
-1.47172e-05
0.000251291
-1.45288e-05
0.000252943
-1.43236e-05
0.00025457
-1.41011e-05
0.00025617
-1.38611e-05
0.000257741
-1.3603e-05
0.000259282
-1.33262e-05
0.000260792
-1.30302e-05
0.000262269
-1.27142e-05
0.000263713
-1.23774e-05
0.000265123
-1.20189e-05
0.000266498
-1.16378e-05
0.000267838
-1.12329e-05
0.000269143
-1.08031e-05
0.000270413
-1.03471e-05
0.000271649
-9.86373e-06
0.000272853
-9.35154e-06
0.000274026
-8.80918e-06
0.000275172
-8.23533e-06
0.000276295
-7.62876e-06
0.0002774
-6.9884e-06
0.000278493
-6.31347e-06
0.000279585
-5.60361e-06
0.000280684
-4.85902e-06
0.000281803
-4.08064e-06
0.000282956
-3.27041e-06
0.000284159
-2.43136e-06
0.000285432
-1.56781e-06
0.000286794
-6.85092e-07
0.000288263
2.09074e-07
0.000289856
1.10438e-06
0.000291591
1.98862e-06
0.000293479
2.8478e-06
0.000295528
3.6678e-06
0.000297737
4.43388e-06
0.000300095
5.13215e-06
5.75151e-06
0.000302581
0.000196154
-1.59143e-06
0.000196477
-3.16181e-06
0.000196951
-4.53611e-06
0.000197561
-5.7649e-06
0.000198295
-6.8734e-06
0.000199142
-7.87817e-06
0.000200093
-8.79305e-06
0.000201139
-9.6295e-06
0.000202272
-1.03967e-05
0.000203485
-1.11023e-05
0.000204772
-1.17522e-05
0.000206126
-1.23519e-05
0.000207542
-1.29056e-05
0.000209016
-1.3417e-05
0.000210543
-1.38893e-05
0.000212118
-1.43252e-05
0.000213737
-1.47272e-05
0.000215398
-1.50971e-05
0.000217095
-1.54369e-05
0.000218827
-1.5748e-05
0.000220589
-1.60318e-05
0.000222378
-1.62896e-05
0.000224192
-1.65224e-05
0.000226028
-1.67312e-05
0.000227883
-1.69167e-05
0.000229754
-1.70798e-05
0.00023164
-1.72211e-05
0.000233537
-1.73413e-05
0.000235443
-1.74408e-05
0.000237355
-1.75202e-05
0.000239273
-1.75799e-05
0.000241192
-1.76202e-05
0.000243112
-1.76416e-05
0.00024503
-1.76443e-05
0.000246944
-1.76286e-05
0.000248852
-1.75946e-05
0.000250752
-1.75427e-05
0.000252643
-1.74729e-05
0.000254521
-1.73854e-05
0.000256386
-1.72802e-05
0.000258236
-1.71573e-05
0.000260069
-1.70168e-05
0.000261883
-1.68587e-05
0.000263677
-1.66828e-05
0.000265449
-1.6489e-05
0.000267197
-1.62771e-05
0.000268921
-1.60469e-05
0.000270618
-1.57982e-05
0.000272287
-1.55306e-05
0.000273928
-1.52437e-05
0.000275539
-1.49371e-05
0.000277119
-1.46103e-05
0.000278668
-1.42627e-05
0.000280184
-1.38937e-05
0.000281668
-1.35027e-05
0.000283119
-1.3089e-05
0.000284538
-1.26518e-05
0.000285925
-1.21904e-05
0.000287282
-1.1704e-05
0.00028861
-1.11918e-05
0.000289912
-1.06532e-05
0.00029119
-1.00875e-05
0.000292449
-9.49429e-06
0.000293694
-8.8733e-06
0.00029493
-8.22456e-06
0.000296165
-7.54851e-06
0.000297407
-6.84604e-06
0.000298667
-6.11868e-06
0.000299955
-5.36867e-06
0.000301284
-4.59911e-06
0.000302666
-3.81407e-06
0.000304117
-3.0186e-06
0.000305651
-2.21875e-06
0.000307281
-1.42141e-06
0.00030902
-6.34007e-07
0.000310874
1.34298e-07
0.000312848
8.73287e-07
0.000314943
1.57297e-06
0.000317153
2.22374e-06
0.000319468
2.81684e-06
3.34686e-06
0.000321873
0.000209886
-1.75221e-06
0.00021022
-3.49543e-06
0.00021071
-5.02617e-06
0.000211342
-6.39718e-06
0.000212105
-7.63577e-06
0.000212986
-8.75952e-06
0.000213976
-9.78324e-06
0.000215066
-1.07194e-05
0.000216248
-1.15781e-05
0.000217513
-1.23677e-05
0.000218856
-1.3095e-05
0.00022027
-1.37658e-05
0.00022175
-1.4385e-05
0.000223289
-1.49566e-05
0.000224885
-1.54843e-05
0.00022653
-1.59711e-05
0.000228223
-1.64196e-05
0.000229958
-1.68321e-05
0.000231732
-1.72107e-05
0.000233541
-1.7557e-05
0.000235382
-1.78727e-05
0.000237252
-1.8159e-05
0.000239147
-1.84173e-05
0.000241064
-1.86485e-05
0.000243001
-1.88536e-05
0.000244955
-1.90335e-05
0.000246923
-1.9189e-05
0.000248903
-1.93207e-05
0.000250891
-1.94292e-05
0.000252886
-1.95152e-05
0.000254886
-1.95791e-05
0.000256887
-1.96213e-05
0.000258888
-1.96424e-05
0.000260886
-1.96425e-05
0.00026288
-1.96222e-05
0.000264867
-1.95815e-05
0.000266845
-1.95209e-05
0.000268813
-1.94404e-05
0.000270768
-1.93403e-05
0.000272708
-1.92207e-05
0.000274633
-1.90816e-05
0.000276539
-1.89232e-05
0.000278426
-1.87455e-05
0.000280292
-1.85485e-05
0.000282135
-1.83321e-05
0.000283954
-1.80961e-05
0.000285748
-1.78406e-05
0.000287515
-1.75653e-05
0.000289255
-1.72701e-05
0.000290966
-1.69546e-05
0.000292647
-1.66186e-05
0.000294299
-1.62618e-05
0.00029592
-1.58838e-05
0.000297511
-1.54844e-05
0.000299071
-1.50631e-05
0.000300602
-1.46195e-05
0.000302103
-1.41534e-05
0.000303577
-1.36643e-05
0.000305025
-1.3152e-05
0.00030645
-1.26163e-05
0.000307854
-1.20572e-05
0.000309241
-1.14747e-05
0.000310616
-1.08692e-05
0.000311984
-1.02413e-05
0.000313351
-9.59175e-06
0.000314724
-8.922e-06
0.000316112
-8.23378e-06
0.000317523
-7.52942e-06
0.000318966
-6.81184e-06
0.000320451
-6.08459e-06
0.000321989
-5.35195e-06
0.000323589
-4.61882e-06
0.000325261
-3.89077e-06
0.000327014
-3.17385e-06
0.000328854
-2.47448e-06
0.000330788
-1.79917e-06
0.000332815
-1.15382e-06
0.000334933
-5.44906e-07
0.000337134
2.19893e-08
0.00033941
5.41185e-07
1.0102e-06
0.000341747
0.000224579
-1.91787e-06
0.000224923
-3.83933e-06
0.000225429
-5.53246e-06
0.000226084
-7.05152e-06
0.000226874
-8.42581e-06
0.000227788
-9.67393e-06
0.000228817
-1.08116e-05
0.00022995
-1.18522e-05
0.000231178
-1.28069e-05
0.000232495
-1.36846e-05
0.000233893
-1.4493e-05
0.000235366
-1.52384e-05
0.000236907
-1.59261e-05
0.000238512
-1.65608e-05
0.000240174
-1.71464e-05
0.000241889
-1.76863e-05
0.000243653
-1.81834e-05
0.000245461
-1.86403e-05
0.00024731
-1.90592e-05
0.000249196
-1.94422e-05
0.000251114
-1.97908e-05
0.000253062
-2.01067e-05
0.000255036
-2.03911e-05
0.000257033
-2.06454e-05
0.00025905
-2.08706e-05
0.000261084
-2.10676e-05
0.000263132
-2.12373e-05
0.000265192
-2.13805e-05
0.000267261
-2.14979e-05
0.000269336
-2.15902e-05
0.000271415
-2.16579e-05
0.000273496
-2.17016e-05
0.000275575
-2.17217e-05
0.000277652
-2.17187e-05
0.000279723
-2.1693e-05
0.000281786
-2.16449e-05
0.00028384
-2.15747e-05
0.000285883
-2.14827e-05
0.000287912
-2.13692e-05
0.000289926
-2.12343e-05
0.000291922
-2.10783e-05
0.0002939
-2.09013e-05
0.000295858
-2.07033e-05
0.000297794
-2.04845e-05
0.000299707
-2.0245e-05
0.000301596
-1.99847e-05
0.000303459
-1.97036e-05
0.000305296
-1.94018e-05
0.000307105
-1.90792e-05
0.000308886
-1.87357e-05
0.000310639
-1.83712e-05
0.000312363
-1.79856e-05
0.000314058
-1.7579e-05
0.000315725
-1.71511e-05
0.000317364
-1.6702e-05
0.000318976
-1.62316e-05
0.000320562
-1.574e-05
0.000322125
-1.52273e-05
0.000323667
-1.46937e-05
0.00032519
-1.41395e-05
0.000326698
-1.35653e-05
0.000328196
-1.29718e-05
0.000329686
-1.23599e-05
0.000331176
-1.17307e-05
0.00033267
-1.10859e-05
0.000334175
-1.04273e-05
0.000335699
-9.75721e-06
0.000337247
-9.07823e-06
0.000338829
-8.39351e-06
0.000340451
-7.70661e-06
0.000342121
-7.02149e-06
0.000343844
-6.34249e-06
0.000345628
-5.67424e-06
0.000347475
-5.02156e-06
0.00034939
-4.38934e-06
0.000351373
-3.78237e-06
0.000353425
-3.20515e-06
0.000355542
-2.66184e-06
0.000357719
-2.15581e-06
0.000359949
-1.68886e-06
-1.26225e-06
0.000362222
0.000240301
-2.08832e-06
0.000240654
-4.19323e-06
0.000241176
-6.05443e-06
0.000241852
-7.72713e-06
0.000242669
-9.24252e-06
0.000243615
-1.06202e-05
0.00024468
-1.18767e-05
0.000245855
-1.30264e-05
0.000247129
-1.40813e-05
0.000248496
-1.50512e-05
0.000249947
-1.59443e-05
0.000251477
-1.67675e-05
0.000253077
-1.75269e-05
0.000254744
-1.82274e-05
0.000256471
-1.88733e-05
0.000258254
-1.94685e-05
0.000260087
-2.00162e-05
0.000261966
-2.05192e-05
0.000263887
-2.09801e-05
0.000265846
-2.14008e-05
0.000267838
-2.17835e-05
0.000269862
-2.21298e-05
0.000271912
-2.24412e-05
0.000273986
-2.2719e-05
0.00027608
-2.29645e-05
0.000278191
-2.31788e-05
0.000280317
-2.33628e-05
0.000282454
-2.35175e-05
0.0002846
-2.36436e-05
0.000286752
-2.37419e-05
0.000288907
-2.3813e-05
0.000291064
-2.38577e-05
0.000293218
-2.38763e-05
0.000295369
-2.38695e-05
0.000297514
-2.38377e-05
0.000299651
-2.37814e-05
0.000301777
-2.37009e-05
0.000303891
-2.35967e-05
0.000305991
-2.3469e-05
0.000308075
-2.33181e-05
0.000310141
-2.31444e-05
0.000312188
-2.29481e-05
0.000314214
-2.27294e-05
0.000316219
-2.24885e-05
0.000318199