/*--------------------------------*- C++ -*----------------------------------*\
| =========                 |                                                 |
| \\      /  F ield         | OpenFOAM: The Open Source CFD Toolbox           |
|  \\    /   O peration     | Version:  2106                                  |
|   \\  /    A nd           | Website:  www.openfoam.com                      |
|    \\/     M anipulation  |                                                 |
\*---------------------------------------------------------------------------*/
FoamFile
{
    version     2.0;
    format      ascii;
    arch        "LSB;label=32;scalar=64";
    class       volScalarField;
    location    "9.2";
    object      T;
}
// * * * * * * * * * * * * * * * * * * * * * * * * * * * * * * * * * * * * * //

dimensions      [0 0 0 1 0 0 0];

internalField   nonuniform List<scalar> 
12013
(
300.004
300.011
300.019
300.027
300.035
300.044
300.053
300.062
300.072
300.082
300.093
300.103
300.115
300.126
300.138
300.151
300.163
300.177
300.19
300.204
300.219
300.234
300.249
300.265
300.282
300.299
300.316
300.334
300.353
300.372
300.392
300.412
300.433
300.454
300.476
300.499
300.522
300.546
300.571
300.596
300.622
300.649
300.676
300.705
300.734
300.764
300.794
300.826
300.858
300.892
300.926
300.961
300.998
301.035
301.073
301.113
301.153
301.195
301.238
301.283
301.328
301.376
301.424
301.475
301.527
301.58
301.636
301.694
301.754
301.816
301.881
301.949
302.02
302.095
302.174
302.258
302.349
302.447
302.556
302.679
302.826
300.004
300.011
300.019
300.027
300.035
300.044
300.053
300.062
300.072
300.082
300.093
300.103
300.115
300.126
300.138
300.151
300.163
300.177
300.19
300.204
300.219
300.234
300.249
300.265
300.282
300.299
300.316
300.334
300.353
300.372
300.392
300.412
300.433
300.454
300.476
300.499
300.522
300.546
300.571
300.596
300.622
300.649
300.676
300.705
300.734
300.764
300.794
300.826
300.858
300.892
300.926
300.961
300.997
301.035
301.073
301.113
301.153
301.195
301.238
301.282
301.328
301.375
301.424
301.474
301.526
301.58
301.635
301.693
301.752
301.815
301.879
301.947
302.018
302.092
302.171
302.254
302.343
302.439
302.543
302.657
302.784
300.004
300.011
300.019
300.027
300.035
300.044
300.053
300.062
300.072
300.082
300.093
300.103
300.115
300.126
300.138
300.151
300.163
300.177
300.19
300.204
300.219
300.234
300.249
300.265
300.282
300.299
300.316
300.334
300.353
300.372
300.392
300.412
300.433
300.454
300.476
300.499
300.522
300.546
300.571
300.596
300.622
300.649
300.676
300.704
300.733
300.763
300.794
300.826
300.858
300.891
300.926
300.961
300.997
301.034
301.073
301.112
301.153
301.194
301.237
301.282
301.327
301.374
301.423
301.473
301.524
301.578
301.633
301.69
301.75
301.811
301.876
301.943
302.013
302.086
302.163
302.244
302.33
302.421
302.519
302.622
302.729
300.004
300.011
300.019
300.027
300.035
300.044
300.053
300.062
300.072
300.082
300.093
300.103
300.115
300.126
300.138
300.15
300.163
300.177
300.19
300.204
300.219
300.234
300.249
300.265
300.282
300.299
300.316
300.334
300.353
300.372
300.391
300.412
300.432
300.454
300.476
300.499
300.522
300.546
300.57
300.596
300.622
300.648
300.676
300.704
300.733
300.763
300.794
300.825
300.858
300.891
300.925
300.96
300.996
301.034
301.072
301.111
301.152
301.193
301.236
301.28
301.326
301.372
301.421
301.47
301.522
301.575
301.63
301.687
301.745
301.806
301.87
301.936
302.004
302.076
302.151
302.229
302.311
302.397
302.486
302.578
302.672
300.004
300.011
300.019
300.027
300.035
300.044
300.053
300.062
300.072
300.082
300.093
300.103
300.115
300.126
300.138
300.15
300.163
300.177
300.19
300.204
300.219
300.234
300.249
300.265
300.282
300.299
300.316
300.334
300.353
300.372
300.391
300.412
300.432
300.454
300.476
300.498
300.522
300.546
300.57
300.595
300.621
300.648
300.676
300.704
300.733
300.763
300.793
300.825
300.857
300.89
300.924
300.959
300.995
301.032
301.071
301.11
301.15
301.191
301.234
301.278
301.323
301.37
301.418
301.467
301.518
301.571
301.625
301.681
301.739
301.799
301.861
301.926
301.993
302.062
302.134
302.209
302.286
302.366
302.448
302.531
302.613
300.004
300.011
300.019
300.027
300.035
300.044
300.053
300.062
300.072
300.082
300.093
300.103
300.115
300.126
300.138
300.15
300.163
300.176
300.19
300.204
300.219
300.234
300.249
300.265
300.282
300.299
300.316
300.334
300.353
300.372
300.391
300.411
300.432
300.454
300.476
300.498
300.521
300.545
300.57
300.595
300.621
300.648
300.675
300.703
300.732
300.762
300.792
300.824
300.856
300.889
300.923
300.958
300.994
301.031
301.069
301.108
301.148
301.189
301.232
301.275
301.32
301.366
301.414
301.463
301.513
301.565
301.618
301.674
301.731
301.789
301.85
301.913
301.977
302.044
302.113
302.184
302.256
302.33
302.405
302.48
302.554
300.004
300.011
300.019
300.027
300.035
300.044
300.053
300.062
300.072
300.082
300.092
300.103
300.114
300.126
300.138
300.15
300.163
300.176
300.19
300.204
300.219
300.234
300.249
300.265
300.282
300.299
300.316
300.334
300.352
300.371
300.391
300.411
300.432
300.453
300.475
300.498
300.521
300.545
300.569
300.595
300.621
300.647
300.674
300.703
300.731
300.761
300.792
300.823
300.855
300.888
300.922
300.957
300.992
301.029
301.067
301.106
301.145
301.186
301.228
301.271
301.316
301.362
301.408
301.457
301.506
301.557
301.61
301.664
301.72
301.777
301.836
301.896
301.959
302.022
302.088
302.154
302.222
302.29
302.359
302.427
302.494
300.004
300.011
300.019
300.027
300.035
300.044
300.053
300.062
300.072
300.082
300.092
300.103
300.114
300.126
300.138
300.15
300.163
300.176
300.19
300.204
300.219
300.234
300.249
300.265
300.281
300.298
300.316
300.334
300.352
300.371
300.391
300.411
300.432
300.453
300.475
300.497
300.521
300.544
300.569
300.594
300.62
300.646
300.674
300.702
300.73
300.76
300.79
300.821
300.853
300.886
300.92
300.955
300.99
301.027
301.064
301.102
301.142
301.182
301.224
301.267
301.311
301.356
301.402
301.449
301.498
301.548
301.6
301.652
301.706
301.762
301.819
301.877
301.936
301.997
302.058
302.121
302.184
302.247
302.31
302.373
302.434
300.004
300.011
300.019
300.027
300.035
300.044
300.053
300.062
300.072
300.082
300.092
300.103
300.114
300.126
300.138
300.15
300.163
300.176
300.19
300.204
300.219
300.234
300.249
300.265
300.281
300.298
300.316
300.334
300.352
300.371
300.391
300.411
300.431
300.453
300.475
300.497
300.52
300.544
300.568
300.593
300.619
300.645
300.673
300.701
300.729
300.759
300.789
300.82
300.851
300.884
300.918
300.952
300.987
301.023
301.06
301.099
301.138
301.178
301.219
301.261
301.304
301.348
301.394
301.44
301.488
301.537
301.587
301.638
301.69
301.744
301.798
301.854
301.911
301.968
302.026
302.084
302.143
302.202
302.26
302.317
302.374
300.004
300.011
300.019
300.027
300.035
300.044
300.053
300.062
300.072
300.082
300.092
300.103
300.114
300.126
300.138
300.15
300.163
300.176
300.19
300.204
300.218
300.233
300.249
300.265
300.281
300.298
300.315
300.333
300.352
300.371
300.39
300.41
300.431
300.452
300.474
300.496
300.519
300.543
300.567
300.592
300.618
300.644
300.671
300.699
300.728
300.757
300.787
300.818
300.849
300.882
300.915
300.949
300.984
301.019
301.056
301.094
301.132
301.172
301.212
301.254
301.296
301.34
301.384
301.429
301.476
301.523
301.572
301.621
301.672
301.723
301.775
301.828
301.882
301.936
301.99
302.045
302.1
302.154
302.208
302.261
302.313
300.004
300.011
300.019
300.027
300.035
300.044
300.053
300.062
300.072
300.082
300.092
300.103
300.114
300.126
300.138
300.15
300.163
300.176
300.19
300.204
300.218
300.233
300.249
300.265
300.281
300.298
300.315
300.333
300.351
300.37
300.39
300.41
300.43
300.452
300.473
300.496
300.519
300.542
300.566
300.591
300.617
300.643
300.67
300.697
300.726
300.755
300.784
300.815
300.846
300.878
300.911
300.945
300.979
301.015
301.051
301.088
301.126
301.165
301.205
301.245
301.287
301.329
301.372
301.417
301.462
301.508
301.555
301.602
301.651
301.7
301.749
301.8
301.85
301.901
301.952
302.003
302.054
302.105
302.155
302.204
302.252
300.004
300.011
300.019
300.027
300.035
300.044
300.053
300.062
300.072
300.082
300.092
300.103
300.114
300.126
300.138
300.15
300.163
300.176
300.19
300.204
300.218
300.233
300.248
300.264
300.281
300.297
300.315
300.333
300.351
300.37
300.389
300.409
300.43
300.451
300.472
300.495
300.518
300.541
300.565
300.59
300.615
300.641
300.668
300.695
300.723
300.752
300.782
300.812
300.843
300.875
300.907
300.94
300.974
301.009
301.045
301.081
301.119
301.157
301.195
301.235
301.276
301.317
301.359
301.402
301.445
301.49
301.535
301.58
301.627
301.673
301.721
301.768
301.816
301.864
301.912
301.959
302.007
302.054
302.1
302.146
302.19
300.004
300.011
300.019
300.027
300.035
300.044
300.053
300.062
300.072
300.082
300.092
300.103
300.114
300.126
300.138
300.15
300.163
300.176
300.189
300.203
300.218
300.233
300.248
300.264
300.28
300.297
300.314
300.332
300.35
300.369
300.389
300.408
300.429
300.45
300.471
300.494
300.516
300.54
300.564
300.588
300.613
300.639
300.666
300.693
300.721
300.749
300.778
300.808
300.839
300.87
300.902
300.935
300.968
301.003
301.038
301.073
301.11
301.147
301.185
301.224
301.263
301.303
301.344
301.385
301.427
301.47
301.513
301.556
301.6
301.645
301.689
301.734
301.779
301.824
301.869
301.913
301.958
302.001
302.044
302.087
302.128
300.004
300.011
300.019
300.027
300.035
300.044
300.053
300.062
300.072
300.082
300.092
300.103
300.114
300.126
300.138
300.15
300.163
300.176
300.189
300.203
300.218
300.233
300.248
300.264
300.28
300.297
300.314
300.332
300.35
300.369
300.388
300.408
300.428
300.449
300.47
300.492
300.515
300.538
300.562
300.586
300.611
300.637
300.663
300.69
300.717
300.746
300.774
300.804
300.834
300.865
300.896
300.929
300.961
300.995
301.029
301.064
301.1
301.136
301.173
301.21
301.248
301.287
301.326
301.366
301.407
301.447
301.488
301.53
301.572
301.614
301.656
301.698
301.74
301.782
301.824
301.866
301.907
301.948
301.988
302.027
302.066
300.004
300.011
300.019
300.027
300.035
300.044
300.053
300.062
300.072
300.082
300.092
300.103
300.114
300.126
300.137
300.15
300.162
300.176
300.189
300.203
300.217
300.232
300.248
300.263
300.279
300.296
300.313
300.331
300.349
300.368
300.387
300.407
300.427
300.448
300.469
300.491
300.513
300.536
300.56
300.584
300.609
300.634
300.66
300.686
300.714
300.741
300.77
300.799
300.828
300.859
300.89
300.921
300.953
300.986
301.02
301.054
301.088
301.123
301.159
301.195
301.232
301.269
301.307
301.345
301.384
301.423
301.462
301.501
301.541
301.581
301.62
301.66
301.7
301.739
301.778
301.817
301.855
301.893
301.931
301.968
302.004
300.004
300.011
300.019
300.027
300.035
300.044
300.053
300.062
300.072
300.082
300.092
300.103
300.114
300.125
300.137
300.15
300.162
300.175
300.189
300.203
300.217
300.232
300.247
300.263
300.279
300.296
300.313
300.33
300.348
300.367
300.386
300.405
300.425
300.446
300.467
300.489
300.511
300.534
300.557
300.581
300.606
300.631
300.656
300.682
300.709
300.736
300.764
300.793
300.822
300.852
300.882
300.913
300.944
300.976
301.009
301.042
301.075
301.109
301.144
301.179
301.214
301.25
301.286
301.323
301.359
301.396
301.433
301.471
301.508
301.546
301.583
301.62
301.657
301.694
301.731
301.767
301.803
301.838
301.873
301.908
301.941
300.004
300.011
300.019
300.027
300.035
300.044
300.053
300.062
300.072
300.082
300.092
300.103
300.114
300.125
300.137
300.149
300.162
300.175
300.188
300.202
300.217
300.231
300.247
300.262
300.278
300.295
300.312
300.329
300.347
300.366
300.385
300.404
300.424
300.444
300.465
300.487
300.509
300.531
300.554
300.578
300.602
300.627
300.652
300.678
300.704
300.731
300.758
300.786
300.815
300.844
300.873
300.903
300.934
300.965
300.996
301.028
301.061
301.094
301.127
301.16
301.194
301.229
301.263
301.298
301.333
301.368
301.403
301.438
301.474
301.509
301.544
301.579
301.614
301.648
301.682
301.716
301.75
301.783
301.815
301.847
301.879
300.004
300.011
300.019
300.027
300.035
300.044
300.053
300.062
300.071
300.081
300.092
300.102
300.114
300.125
300.137
300.149
300.162
300.175
300.188
300.202
300.216
300.231
300.246
300.261
300.277
300.294
300.311
300.328
300.346
300.364
300.383
300.402
300.422
300.442
300.463
300.484
300.506
300.528
300.551
300.574
300.598
300.622
300.647
300.672
300.698
300.725
300.751
300.779
300.806
300.835
300.863
300.893
300.922
300.952
300.983
301.014
301.045
301.076
301.108
301.14
301.173
301.206
301.238
301.271
301.305
301.338
301.371
301.404
301.437
301.47
301.503
301.536
301.569
301.601
301.633
301.665
301.696
301.727
301.757
301.787
301.816
300.004
300.011
300.019
300.027
300.035
300.044
300.052
300.062
300.071
300.081
300.092
300.102
300.113
300.125
300.137
300.149
300.161
300.174
300.188
300.201
300.216
300.23
300.245
300.261
300.277
300.293
300.31
300.327
300.345
300.363
300.381
300.4
300.42
300.44
300.46
300.481
300.503
300.525
300.547
300.57
300.593
300.617
300.642
300.666
300.692
300.717
300.744
300.77
300.797
300.825
300.853
300.881
300.909
300.938
300.968
300.997
301.027
301.058
301.088
301.119
301.15
301.181
301.212
301.243
301.275
301.306
301.337
301.369
301.4
301.431
301.462
301.493
301.523
301.553
301.583
301.613
301.642
301.67
301.699
301.727
301.754
300.004
300.011
300.019
300.027
300.035
300.043
300.052
300.062
300.071
300.081
300.091
300.102
300.113
300.124
300.136
300.148
300.161
300.174
300.187
300.201
300.215
300.229
300.244
300.26
300.276
300.292
300.308
300.325
300.343
300.361
300.379
300.398
300.418
300.437
300.458
300.478
300.499
300.521
300.543
300.565
300.588
300.612
300.635
300.66
300.684
300.709
300.735
300.761
300.787
300.814
300.841
300.868
300.895
300.923
300.952
300.98
301.009
301.038
301.067
301.096
301.125
301.155
301.184
301.214
301.244
301.273
301.303
301.332
301.361
301.39
301.419
301.448
301.477
301.505
301.533
301.56
301.587
301.614
301.641
301.667
301.693
300.004
300.011
300.019
300.027
300.035
300.043
300.052
300.061
300.071
300.081
300.091
300.102
300.113
300.124
300.136
300.148
300.16
300.173
300.186
300.2
300.214
300.229
300.243
300.259
300.274
300.29
300.307
300.324
300.341
300.359
300.377
300.396
300.415
300.434
300.454
300.475
300.495
300.516
300.538
300.56
300.583
300.605
300.629
300.652
300.676
300.701
300.725
300.75
300.776
300.801
300.827
300.854
300.88
300.907
300.934
300.961
300.989
301.016
301.044
301.072
301.1
301.128
301.156
301.183
301.211
301.239
301.267
301.295
301.322
301.349
301.376
301.403
301.43
301.456
301.482
301.508
301.533
301.558
301.583
301.607
301.631
300.004
300.011
300.019
300.026
300.035
300.043
300.052
300.061
300.071
300.081
300.091
300.102
300.112
300.124
300.135
300.147
300.16
300.173
300.186
300.199
300.213
300.228
300.242
300.257
300.273
300.289
300.305
300.322
300.339
300.357
300.375
300.393
300.412
300.431
300.45
300.47
300.491
300.512
300.533
300.554
300.576
300.598
300.621
300.644
300.667
300.691
300.715
300.739
300.764
300.788
300.813
300.839
300.864
300.89
300.916
300.942
300.968
300.994
301.02
301.047
301.073
301.099
301.126
301.152
301.178
301.204
301.23
301.256
301.282
301.308
301.333
301.358
301.383
301.408
301.432
301.456
301.48
301.503
301.526
301.549
301.571
300.004
300.011
300.018
300.026
300.035
300.043
300.052
300.061
300.071
300.08
300.091
300.101
300.112
300.123
300.135
300.147
300.159
300.172
300.185
300.198
300.212
300.226
300.241
300.256
300.271
300.287
300.303
300.32
300.337
300.354
300.372
300.39
300.408
300.427
300.446
300.466
300.486
300.506
300.527
300.548
300.569
300.591
300.613
300.635
300.658
300.68
300.704
300.727
300.751
300.774
300.798
300.823
300.847
300.871
300.896
300.921
300.946
300.971
300.995
301.02
301.045
301.07
301.095
301.12
301.145
301.169
301.194
301.218
301.242
301.266
301.29
301.313
301.336
301.359
301.382
301.404
301.427
301.448
301.47
301.491
301.512
300.004
300.011
300.018
300.026
300.034
300.043
300.052
300.061
300.07
300.08
300.09
300.101
300.112
300.123
300.134
300.146
300.158
300.171
300.184
300.197
300.211
300.225
300.24
300.255
300.27
300.285
300.301
300.318
300.334
300.351
300.369
300.386
300.405
300.423
300.442
300.461
300.48
300.5
300.52
300.541
300.562
300.583
300.604
300.625
300.647
300.669
300.692
300.714
300.737
300.76
300.783
300.806
300.829
300.852
300.876
300.899
300.923
300.946
300.97
300.994
301.017
301.041
301.064
301.087
301.11
301.134
301.156
301.179
301.202
301.224
301.246
301.268
301.29
301.312
301.333
301.354
301.374
301.395
301.415
301.435
301.454
300.004
300.011
300.018
300.026
300.034
300.043
300.052
300.061
300.07
300.08
300.09
300.1
300.111
300.122
300.134
300.146
300.158
300.17
300.183
300.196
300.21
300.224
300.238
300.253
300.268
300.283
300.299
300.315
300.331
300.348
300.365
300.383
300.4
300.418
300.437
300.456
300.475
300.494
300.513
300.533
300.553
300.574
300.594
300.615
300.636
300.657
300.679
300.7
300.722
300.744
300.766
300.788
300.81
300.833
300.855
300.877
300.899
300.922
300.944
300.966
300.989
301.011
301.033
301.055
301.076
301.098
301.12
301.141
301.162
301.183
301.204
301.224
301.245
301.265
301.285
301.304
301.323
301.343
301.361
301.38
301.398
300.004
300.011
300.018
300.026
300.034
300.043
300.051
300.06
300.07
300.08
300.09
300.1
300.111
300.122
300.133
300.145
300.157
300.169
300.182
300.195
300.209
300.222
300.236
300.251
300.266
300.281
300.296
300.312
300.328
300.345
300.361
300.379
300.396
300.414
300.432
300.45
300.468
300.487
300.506
300.525
300.545
300.564
300.584
300.604
300.625
300.645
300.666
300.686
300.707
300.728
300.749
300.77
300.791
300.812
300.834
300.855
300.876
300.897
300.918
300.939
300.96
300.981
301.002
301.022
301.043
301.063
301.083
301.103
301.123
301.143
301.162
301.181
301.2
301.219
301.238
301.256
301.274
301.292
301.309
301.327
301.344
300.004
300.011
300.018
300.026
300.034
300.042
300.051
300.06
300.069
300.079
300.089
300.099
300.11
300.121
300.132
300.144
300.156
300.168
300.181
300.194
300.207
300.221
300.235
300.249
300.263
300.278
300.294
300.309
300.325
300.341
300.357
300.374
300.391
300.408
300.426
300.444
300.462
300.48
300.498
300.517
300.536
300.555
300.574
300.593
300.613
300.632
300.652
300.672
300.692
300.712
300.732
300.752
300.772
300.792
300.812
300.832
300.852
300.872
300.892
300.912
300.932
300.951
300.971
300.99
301.009
301.029
301.048
301.066
301.085
301.103
301.122
301.14
301.157
301.175
301.192
301.209
301.226
301.243
301.26
301.276
301.292
300.004
300.011
300.018
300.026
300.034
300.042
300.051
300.06
300.069
300.079
300.089
300.099
300.109
300.12
300.131
300.143
300.155
300.167
300.179
300.192
300.205
300.219
300.233
300.247
300.261
300.276
300.291
300.306
300.321
300.337
300.353
300.37
300.386
300.403
300.42
300.437
300.455
300.472
300.49
300.508
300.526
300.545
300.563
300.582
300.601
300.619
300.638
300.657
300.676
300.695
300.714
300.734
300.753
300.772
300.791
300.81
300.829
300.848
300.867
300.885
300.904
300.922
300.941
300.959
300.977
300.995
301.013
301.031
301.048
301.065
301.083
301.099
301.116
301.133
301.149
301.165
301.181
301.197
301.212
301.227
301.242
300.003
300.011
300.018
300.026
300.034
300.042
300.051
300.059
300.069
300.078
300.088
300.098
300.109
300.119
300.131
300.142
300.154
300.166
300.178
300.191
300.204
300.217
300.23
300.244
300.258
300.273
300.288
300.302
300.318
300.333
300.349
300.365
300.381
300.397
300.414
300.431
300.448
300.465
300.482
300.499
300.517
300.535
300.553
300.57
300.588
300.606
300.625
300.643
300.661
300.679
300.697
300.716
300.734
300.752
300.77
300.788
300.806
300.824
300.842
300.86
300.877
300.895
300.912
300.929
300.946
300.963
300.98
300.997
301.013
301.029
301.045
301.061
301.077
301.093
301.108
301.123
301.138
301.153
301.167
301.182
301.196
300.003
300.011
300.018
300.026
300.033
300.042
300.05
300.059
300.068
300.078
300.087
300.098
300.108
300.119
300.13
300.141
300.152
300.164
300.177
300.189
300.202
300.215
300.228
300.242
300.256
300.27
300.284
300.299
300.314
300.329
300.344
300.36
300.376
300.392
300.408
300.424
300.44
300.457
300.474
300.491
300.508
300.525
300.542
300.559
300.576
300.594
300.611
300.628
300.646
300.663
300.681
300.698
300.715
300.733
300.75
300.767
300.784
300.801
300.818
300.835
300.852
300.868
300.885
300.901
300.917
300.933
300.949
300.965
300.98
300.995
301.011
301.026
301.04
301.055
301.07
301.084
301.098
301.112
301.126
301.139
301.152
300.003
300.01
300.018
300.025
300.033
300.041
300.05
300.059
300.068
300.077
300.087
300.097
300.107
300.118
300.129
300.14
300.151
300.163
300.175
300.187
300.2
300.213
300.226
300.239
300.253
300.267
300.281
300.295
300.31
300.325
300.34
300.355
300.37
300.386
300.402
300.417
300.433
300.449
300.466
300.482
300.498
300.515
300.531
300.548
300.565
300.581
300.598
300.615
300.631
300.648
300.665
300.681
300.698
300.714
300.731
300.747
300.763
300.78
300.796
300.812
300.827
300.843
300.859
300.874
300.89
300.905
300.92
300.935
300.949
300.964
300.978
300.993
301.007
301.02
301.034
301.048
301.061
301.074
301.087
301.1
301.112
300.003
300.01
300.018
300.025
300.033
300.041
300.05
300.058
300.067
300.077
300.086
300.096
300.106
300.117
300.128
300.139
300.15
300.162
300.174
300.186
300.198
300.211
300.224
300.237
300.25
300.264
300.278
300.292
300.306
300.321
300.335
300.35
300.365
300.38
300.396
300.411
300.426
300.442
300.458
300.474
300.49
300.505
300.521
300.537
300.554
300.57
300.586
300.602
300.618
300.634
300.65
300.666
300.681
300.697
300.713
300.729
300.744
300.76
300.775
300.79
300.805
300.82
300.835
300.85
300.865
300.879
300.893
300.907
300.921
300.935
300.949
300.962
300.976
300.989
301.002
301.015
301.028
301.04
301.052
301.065
301.076
300.003
300.01
300.018
300.025
300.033
300.041
300.049
300.058
300.067
300.076
300.086
300.095
300.106
300.116
300.127
300.138
300.149
300.16
300.172
300.184
300.196
300.209
300.222
300.234
300.248
300.261
300.275
300.289
300.303
300.317
300.331
300.346
300.36
300.375
300.39
300.405
300.42
300.435
300.451
300.466
300.481
300.497
300.512
300.528
300.543
300.559
300.574
300.59
300.605
300.621
300.636
300.651
300.667
300.682
300.697
300.712
300.727
300.742
300.756
300.771
300.785
300.8
300.814
300.828
300.842
300.856
300.87
300.883
300.897
300.91
300.923
300.936
300.948
300.961
300.974
300.986
300.998
301.01
301.022
301.033
301.045
300.003
300.01
300.017
300.025
300.033
300.041
300.049
300.058
300.066
300.076
300.085
300.095
300.105
300.115
300.126
300.136
300.148
300.159
300.171
300.182
300.194
300.207
300.219
300.232
300.245
300.258
300.272
300.285
300.299
300.313
300.327
300.341
300.356
300.37
300.385
300.399
300.414
300.429
300.444
300.459
300.474
300.489
300.504
300.519
300.534
300.549
300.564
300.579
300.594
300.609
300.624
300.639
300.653
300.668
300.683
300.697
300.711
300.726
300.74
300.754
300.768
300.782
300.796
300.809
300.823
300.836
300.849
300.862
300.875
300.888
300.9
300.913
300.925
300.937
300.949
300.961
300.972
300.984
300.995
301.006
301.017
300.003
300.01
300.017
300.025
300.032
300.04
300.049
300.057
300.066
300.075
300.084
300.094
300.104
300.114
300.125
300.135
300.146
300.158
300.169
300.181
300.193
300.205
300.217
300.23
300.243
300.256
300.269
300.283
300.296
300.31
300.324
300.338
300.352
300.366
300.38
300.394
300.409
300.423
300.438
300.453
300.467
300.482
300.497
300.511
300.526
300.541
300.555
300.57
300.584
300.599
300.613
300.628
300.642
300.656
300.67
300.684
300.698
300.712
300.726
300.74
300.753
300.767
300.78
300.793
300.806
300.819
300.832
300.844
300.857
300.869
300.881
300.893
300.905
300.917
300.928
300.94
300.951
300.962
300.973
300.984
300.994
300.003
300.01
300.017
300.025
300.032
300.04
300.048
300.057
300.066
300.075
300.084
300.093
300.103
300.113
300.124
300.134
300.145
300.157
300.168
300.18
300.191
300.204
300.216
300.228
300.241
300.254
300.267
300.28
300.293
300.307
300.321
300.334
300.348
300.362
300.376
300.39
300.405
300.419
300.433
300.447
300.462
300.476
300.491
300.505
300.519
300.534
300.548
300.562
300.577
300.591
300.605
300.619
300.633
300.647
300.661
300.674
300.688
300.701
300.715
300.728
300.741
300.754
300.767
300.78
300.793
300.805
300.818
300.83
300.842
300.854
300.866
300.878
300.889
300.901
300.912
300.923
300.934
300.945
300.955
300.966
300.976
300.003
300.01
300.017
300.024
300.032
300.04
300.048
300.056
300.065
300.074
300.083
300.093
300.103
300.113
300.123
300.134
300.145
300.156
300.167
300.178
300.19
300.202
300.214
300.227
300.239
300.252
300.265
300.278
300.291
300.305
300.318
300.332
300.345
300.359
300.373
300.387
300.401
300.415
300.429
300.443
300.458
300.472
300.486
300.5
300.514
300.528
300.542
300.557
300.571
300.584
300.598
300.612
300.626
300.64
300.653
300.667
300.68
300.693
300.706
300.719
300.732
300.745
300.758
300.771
300.783
300.795
300.807
300.819
300.831
300.843
300.855
300.866
300.878
300.889
300.9
300.911
300.921
300.932
300.942
300.953
300.963
300.003
300.01
300.017
300.024
300.032
300.04
300.048
300.056
300.065
300.074
300.083
300.093
300.102
300.112
300.123
300.133
300.144
300.155
300.166
300.178
300.189
300.201
300.213
300.226
300.238
300.251
300.264
300.277
300.29
300.303
300.316
300.33
300.344
300.357
300.371
300.385
300.399
300.413
300.427
300.441
300.455
300.469
300.483
300.497
300.511
300.525
300.539
300.553
300.566
300.58
300.594
300.608
300.621
300.635
300.648
300.661
300.675
300.688
300.701
300.714
300.726
300.739
300.752
300.764
300.776
300.788
300.8
300.812
300.824
300.836
300.847
300.859
300.87
300.881
300.892
300.902
300.913
300.924
300.934
300.944
300.954
300.003
300.01
300.017
300.024
300.032
300.04
300.048
300.056
300.065
300.074
300.083
300.092
300.102
300.112
300.122
300.133
300.143
300.154
300.166
300.177
300.189
300.201
300.213
300.225
300.237
300.25
300.263
300.276
300.289
300.302
300.315
300.329
300.342
300.356
300.37
300.383
300.397
300.411
300.425
300.439
300.453
300.467
300.481
300.495
300.509
300.523
300.536
300.55
300.564
300.578
300.591
300.605
300.618
300.632
300.645
300.658
300.672
300.685
300.698
300.71
300.723
300.736
300.748
300.76
300.773
300.785
300.797
300.808
300.82
300.832
300.843
300.854
300.865
300.876
300.887
300.898
300.908
300.919
300.929
300.939
300.949
300.003
300.01
300.017
300.024
300.032
300.039
300.048
300.056
300.065
300.073
300.083
300.092
300.102
300.112
300.122
300.132
300.143
300.154
300.165
300.177
300.188
300.2
300.212
300.225
300.237
300.25
300.262
300.275
300.288
300.302
300.315
300.328
300.342
300.355
300.369
300.383
300.397
300.41
300.424
300.438
300.452
300.466
300.48
300.494
300.508
300.522
300.535
300.549
300.563
300.577
300.59
300.604
300.617
300.631
300.644
300.657
300.67
300.683
300.696
300.709
300.722
300.734
300.747
300.759
300.771
300.783
300.795
300.807
300.819
300.83
300.842
300.853
300.864
300.875
300.886
300.896
300.907
300.917
300.927
300.937
300.947
300.003
300.01
300.017
300.024
300.032
300.039
300.047
300.056
300.064
300.073
300.083
300.092
300.102
300.112
300.122
300.132
300.143
300.154
300.165
300.177
300.188
300.2
300.212
300.224
300.237
300.249
300.262
300.275
300.288
300.301
300.315
300.328
300.342
300.355
300.369
300.383
300.396
300.41
300.424
300.438
300.452
300.466
300.48
300.494
300.508
300.522
300.535
300.549
300.563
300.577
300.59
300.604
300.617
300.631
300.644
300.657
300.67
300.683
300.696
300.709
300.722
300.734
300.747
300.759
300.771
300.783
300.795
300.807
300.819
300.83
300.842
300.853
300.864
300.875
300.886
300.896
300.907
300.917
300.927
300.938
300.947
303.021
303.15
303.227
303.299
303.363
303.414
303.449
303.489
303.529
303.566
303.597
303.631
303.666
303.7
303.734
303.767
303.798
303.825
303.855
303.885
303.914
303.943
303.973
304.002
304.031
304.059
304.087
304.115
304.143
304.169
304.197
304.224
304.249
304.276
304.302
304.327
304.353
304.378
304.403
304.428
304.453
304.476
304.502
304.529
304.555
304.581
304.604
304.629
304.655
304.681
304.705
304.727
304.752
304.776
304.802
304.828
304.853
304.879
304.905
304.929
304.949
304.972
304.996
305.02
305.045
305.07
305.094
305.119
305.144
305.168
305.192
305.215
305.239
305.263
305.286
305.31
305.333
305.356
305.379
305.404
305.432
305.458
305.481
305.504
305.526
305.547
305.571
305.599
305.624
305.646
305.666
305.691
305.718
305.74
305.766
305.793
305.819
305.841
305.867
305.892
305.913
305.939
305.96
305.985
306.012
306.04
306.065
306.085
306.11
306.131
306.156
306.182
306.21
306.238
306.263
306.283
306.308
306.334
306.362
306.386
306.404
306.427
306.453
306.477
306.502
306.519
306.541
306.563
306.586
306.609
306.63
306.651
306.67
306.689
306.707
306.723
306.738
306.752
306.764
306.775
306.784
306.791
306.797
306.8
306.801
306.8
306.796
306.789
306.779
306.765
306.745
306.723
306.698
306.668
306.632
306.59
306.543
306.461
306.385
306.288
306.16
302.92
303.033
303.121
303.197
303.262
303.317
303.363
303.407
303.449
303.488
303.524
303.56
303.596
303.631
303.666
303.699
303.731
303.762
303.792
303.823
303.853
303.883
303.913
303.942
303.972
304.001
304.029
304.057
304.085
304.113
304.14
304.168
304.194
304.221
304.247
304.273
304.299
304.325
304.35
304.376
304.401
304.426
304.451
304.478
304.504
304.529
304.554
304.579
304.605
304.63
304.655
304.679
304.703
304.728
304.754
304.779
304.805
304.831
304.856
304.88
304.903
304.926
304.95
304.974
304.999
305.024
305.049
305.073
305.098
305.122
305.147
305.171
305.194
305.218
305.242
305.266
305.29
305.313
305.337
305.362
305.389
305.414
305.438
305.462
305.484
305.506
305.531
305.557
305.582
305.605
305.627
305.651
305.677
305.701
305.727
305.753
305.779
305.802
305.828
305.853
305.876
305.9
305.923
305.948
305.975
306.002
306.027
306.049
306.074
306.096
306.121
306.147
306.175
306.202
306.227
306.249
306.274
306.301
306.327
306.351
306.372
306.395
306.42
306.445
306.469
306.488
306.51
306.533
306.556
306.578
306.6
306.621
306.641
306.66
306.677
306.694
306.709
306.723
306.736
306.747
306.756
306.764
306.769
306.773
306.774
306.773
306.769
306.762
306.752
306.738
306.719
306.696
306.671
306.64
306.603
306.56
306.509
306.43
306.35
306.247
306.108
302.838
302.937
303.023
303.098
303.164
303.223
303.274
303.321
303.366
303.407
303.447
303.485
303.522
303.559
303.594
303.628
303.662
303.694
303.725
303.757
303.788
303.818
303.849
303.879
303.909
303.938
303.967
303.996
304.025
304.053
304.081
304.108
304.135
304.162
304.189
304.216
304.242
304.268
304.294
304.32
304.345