/*--------------------------------*- C++ -*----------------------------------*\
| =========                 |                                                 |
| \\      /  F ield         | OpenFOAM: The Open Source CFD Toolbox           |
|  \\    /   O peration     | Version:  2106                                  |
|   \\  /    A nd           | Website:  www.openfoam.com                      |
|    \\/     M anipulation  |                                                 |
\*---------------------------------------------------------------------------*/
FoamFile
{
    version     2.0;
    format      ascii;
    arch        "LSB;label=32;scalar=64";
    class       volVectorField;
    location    "9.2";
    object      U;
}
// * * * * * * * * * * * * * * * * * * * * * * * * * * * * * * * * * * * * * //

dimensions      [0 1 -1 0 0 0 0];

internalField   nonuniform List<vector> 
12013
(
(0.10004 -1.11048e-05 0)
(0.100203 -2.05694e-05 0)
(0.100467 -2.93737e-05 0)
(0.10081 -3.75151e-05 0)
(0.101224 -4.5182e-05 0)
(0.101702 -5.24797e-05 0)
(0.102239 -5.94752e-05 0)
(0.10283 -6.62219e-05 0)
(0.10347 -7.27604e-05 0)
(0.104154 -7.91218e-05 0)
(0.104881 -8.5331e-05 0)
(0.105647 -9.14087e-05 0)
(0.106448 -9.73709e-05 0)
(0.107282 -0.000103231 0)
(0.108147 -0.000109 0)
(0.109041 -0.000114686 0)
(0.109961 -0.000120295 0)
(0.110905 -0.000125834 0)
(0.111872 -0.000131306 0)
(0.11286 -0.000136715 0)
(0.113868 -0.00014206 0)
(0.114893 -0.000147344 0)
(0.115934 -0.000152566 0)
(0.11699 -0.000157726 0)
(0.118059 -0.000162821 0)
(0.11914 -0.00016785 0)
(0.120232 -0.000172809 0)
(0.121333 -0.000177694 0)
(0.122443 -0.000182502 0)
(0.123559 -0.000187228 0)
(0.124681 -0.000191865 0)
(0.125808 -0.000196408 0)
(0.126937 -0.00020085 0)
(0.12807 -0.000205182 0)
(0.129203 -0.000209395 0)
(0.130336 -0.000213481 0)
(0.131468 -0.000217429 0)
(0.132598 -0.000221226 0)
(0.133725 -0.00022486 0)
(0.134847 -0.000228316 0)
(0.135964 -0.000231579 0)
(0.137074 -0.00023463 0)
(0.138176 -0.000237451 0)
(0.139269 -0.000240018 0)
(0.140351 -0.000242307 0)
(0.141422 -0.00024429 0)
(0.142481 -0.000245936 0)
(0.143525 -0.000247208 0)
(0.144553 -0.000248067 0)
(0.145565 -0.000248467 0)
(0.146558 -0.000248353 0)
(0.14753 -0.000247665 0)
(0.148481 -0.000246332 0)
(0.149407 -0.000244271 0)
(0.150307 -0.000241386 0)
(0.151178 -0.000237563 0)
(0.152018 -0.000232667 0)
(0.152823 -0.000226536 0)
(0.153591 -0.000218976 0)
(0.154318 -0.000209752 0)
(0.154999 -0.000198576 0)
(0.15563 -0.000185093 0)
(0.156203 -0.000168857 0)
(0.156714 -0.00014931 0)
(0.157152 -0.000125735 0)
(0.157509 -9.72055e-05 0)
(0.157772 -6.25028e-05 0)
(0.157925 -1.99998e-05 0)
(0.15795 3.2528e-05 0)
(0.157821 9.82395e-05 0)
(0.157506 0.000181661 0)
(0.156961 0.000289451 0)
(0.156127 0.000431723 0)
(0.154918 0.000624349 0)
(0.153209 0.000893112 0)
(0.150817 0.00128141 0)
(0.147451 0.00186503 0)
(0.14263 0.00278462 0)
(0.13555 0.00434502 0)
(0.12509 0.00744621 0)
(0.113075 0.0163382 0)
(0.100037 -3.39063e-05 0)
(0.100199 -6.30646e-05 0)
(0.100463 -9.01045e-05 0)
(0.100804 -0.00011509 0)
(0.101217 -0.00013862 0)
(0.101694 -0.000161015 0)
(0.10223 -0.000182481 0)
(0.10282 -0.000203181 0)
(0.103459 -0.00022324 0)
(0.104143 -0.000242755 0)
(0.104868 -0.000261803 0)
(0.105633 -0.000280445 0)
(0.106433 -0.000298732 0)
(0.107266 -0.000316705 0)
(0.10813 -0.000334396 0)
(0.109022 -0.000351833 0)
(0.109941 -0.000369035 0)
(0.110884 -0.000386019 0)
(0.11185 -0.000402797 0)
(0.112836 -0.000419377 0)
(0.113842 -0.000435765 0)
(0.114866 -0.000451963 0)
(0.115905 -0.000467971 0)
(0.11696 -0.000483785 0)
(0.118027 -0.000499401 0)
(0.119107 -0.000514813 0)
(0.120197 -0.00053001 0)
(0.121297 -0.000544981 0)
(0.122404 -0.000559713 0)
(0.123519 -0.000574192 0)
(0.124639 -0.000588399 0)
(0.125763 -0.000602315 0)
(0.126891 -0.000615919 0)
(0.128021 -0.000629187 0)
(0.129152 -0.000642091 0)
(0.130284 -0.000654604 0)
(0.131414 -0.00066669 0)
(0.132541 -0.000678316 0)
(0.133666 -0.00068944 0)
(0.134785 -0.000700019 0)
(0.1359 -0.000710005 0)
(0.137007 -0.000719342 0)
(0.138107 -0.00072797 0)
(0.139197 -0.000735822 0)
(0.140277 -0.000742821 0)
(0.141346 -0.000748883 0)
(0.142401 -0.000753911 0)
(0.143443 -0.000757797 0)
(0.144469 -0.000760416 0)
(0.145478 -0.000761628 0)
(0.146468 -0.00076127 0)
(0.147438 -0.000759155 0)
(0.148385 -0.000755068 0)
(0.149309 -0.000748757 0)
(0.150207 -0.000739928 0)
(0.151075 -0.000728233 0)
(0.151913 -0.000713263 0)
(0.152717 -0.000694526 0)
(0.153484 -0.000671434 0)
(0.154209 -0.000643274 0)
(0.15489 -0.000609173 0)
(0.15552 -0.000568057 0)
(0.156095 -0.000518586 0)
(0.156608 -0.000459074 0)
(0.15705 -0.000387371 0)
(0.157413 -0.000300703 0)
(0.157685 -0.000195436 0)
(0.157851 -6.67402e-05 0)
(0.157895 9.19251e-05 0)
(0.157794 0.000289697 0)
(0.157519 0.00053955 0)
(0.157033 0.000860314 0)
(0.156289 0.00128004 0)
(0.155219 0.00184169 0)
(0.153734 0.00261278 0)
(0.151714 0.00370209 0)
(0.148993 0.00528768 0)
(0.145347 0.00766392 0)
(0.140498 0.0113218 0)
(0.134459 0.0169918 0)
(0.129571 0.0250896 0)
(0.100034 -5.76319e-05 0)
(0.100194 -0.000108174 0)
(0.100455 -0.000154746 0)
(0.100794 -0.000197767 0)
(0.101205 -0.000238273 0)
(0.101681 -0.000276817 0)
(0.102215 -0.000313756 0)
(0.102802 -0.000349375 0)
(0.103439 -0.000383888 0)
(0.10412 -0.000417461 0)
(0.104844 -0.000450229 0)
(0.105606 -0.000482297 0)
(0.106403 -0.000513752 0)
(0.107234 -0.000544665 0)
(0.108095 -0.000575091 0)
(0.108985 -0.000605077 0)
(0.109901 -0.000634658 0)
(0.110842 -0.000663862 0)
(0.111805 -0.00069271 0)
(0.112789 -0.000721216 0)
(0.113791 -0.000749389 0)
(0.114812 -0.000777233 0)
(0.115849 -0.000804748 0)
(0.1169 -0.000831929 0)
(0.117964 -0.000858766 0)
(0.11904 -0.00088525 0)
(0.120127 -0.000911362 0)
(0.121223 -0.000937083 0)
(0.122327 -0.000962392 0)
(0.123437 -0.000987262 0)
(0.124553 -0.00101166 0)
(0.125674 -0.00103556 0)
(0.126798 -0.00105892 0)
(0.127924 -0.0010817 0)
(0.129051 -0.00110385 0)
(0.130177 -0.00112532 0)
(0.131303 -0.00114606 0)
(0.132426 -0.001166 0)
(0.133546 -0.00118508 0)
(0.134661 -0.00120322 0)
(0.13577 -0.00122033 0)
(0.136873 -0.00123633 0)
(0.137967 -0.00125111 0)
(0.139052 -0.00126455 0)
(0.140127 -0.00127653 0)
(0.141191 -0.00128689 0)
(0.142241 -0.00129548 0)
(0.143277 -0.0013021 0)
(0.144298 -0.00130656 0)
(0.145301 -0.00130859 0)
(0.146286 -0.00130794 0)
(0.14725 -0.00130427 0)
(0.148193 -0.00129724 0)
(0.149111 -0.00128639 0)
(0.150004 -0.00127125 0)
(0.150868 -0.00125122 0)
(0.151701 -0.00122561 0)
(0.152501 -0.00119359 0)
(0.153264 -0.00115418 0)
(0.153987 -0.00110618 0)
(0.154665 -0.00104813 0)
(0.155295 -0.000978251 0)
(0.155871 -0.000894322 0)
(0.156387 -0.000793567 0)
(0.156836 -0.000672472 0)
(0.157209 -0.000526529 0)
(0.157496 -0.00034989 0)
(0.157685 -0.000134868 0)
(0.157762 0.000128788 0)
(0.157708 0.00045508 0)
(0.157501 0.000863464 0)
(0.157115 0.00138139 0)
(0.156518 0.00204829 0)
(0.155669 0.00292174 0)
(0.154526 0.00408701 0)
(0.153043 0.00567118 0)
(0.151187 0.00786189 0)
(0.148964 0.0109271 0)
(0.146489 0.01522 0)
(0.144196 0.0210535 0)
(0.143377 0.0279166 0)
(0.100031 -8.20769e-05 0)
(0.100188 -0.000155775 0)
(0.100446 -0.000223226 0)
(0.100782 -0.000285571 0)
(0.101189 -0.000344245 0)
(0.101661 -0.000400061 0)
(0.102192 -0.000453543 0)
(0.102776 -0.000505104 0)
(0.103409 -0.000555057 0)
(0.104088 -0.000603646 0)
(0.104807 -0.000651063 0)
(0.105566 -0.000697462 0)
(0.10636 -0.00074297 0)
(0.107187 -0.000787689 0)
(0.108044 -0.0008317 0)
(0.10893 -0.00087507 0)
(0.109842 -0.000917849 0)
(0.110778 -0.00096008 0)
(0.111737 -0.00100179 0)
(0.112716 -0.001043 0)
(0.113715 -0.00108373 0)
(0.114731 -0.00112398 0)
(0.115762 -0.00116374 0)
(0.116808 -0.00120302 0)
(0.117868 -0.0012418 0)
(0.118939 -0.00128006 0)
(0.12002 -0.00131777 0)
(0.12111 -0.00135492 0)
(0.122209 -0.00139147 0)
(0.123313 -0.00142737 0)
(0.124424 -0.00146259 0)
(0.125538 -0.00149708 0)
(0.126656 -0.00153079 0)
(0.127775 -0.00156364 0)
(0.128896 -0.00159559 0)
(0.130016 -0.00162655 0)
(0.131135 -0.00165644 0)
(0.132251 -0.00168517 0)
(0.133363 -0.00171266 0)
(0.134471 -0.00173877 0)
(0.135573 -0.0017634 0)
(0.136668 -0.00178641 0)
(0.137755 -0.00180766 0)
(0.138833 -0.00182697 0)
(0.1399 -0.00184415 0)
(0.140955 -0.00185901 0)
(0.141998 -0.0018713 0)
(0.143026 -0.00188075 0)
(0.144038 -0.00188707 0)
(0.145034 -0.00188992 0)
(0.14601 -0.00188889 0)
(0.146967 -0.00188354 0)
(0.147901 -0.00187334 0)
(0.148812 -0.00185769 0)
(0.149697 -0.00183589 0)
(0.150555 -0.0018071 0)
(0.151381 -0.00177036 0)
(0.152175 -0.00172451 0)
(0.152934 -0.00166817 0)
(0.153653 -0.00159968 0)
(0.154329 -0.00151704 0)
(0.154959 -0.00141777 0)
(0.155537 -0.00129887 0)
(0.156059 -0.00115658 0)
(0.156518 -0.00098618 0)
(0.156907 -0.000781702 0)
(0.157217 -0.000535496 0)
(0.157441 -0.000237663 0)
(0.157565 0.000124702 0)
(0.157579 0.000568702 0)
(0.157468 0.00111738 0)
(0.157218 0.00180201 0)
(0.156814 0.00266539 0)
(0.156244 0.00376623 0)
(0.155503 0.00518496 0)
(0.154605 0.00703 0)
(0.153599 0.00944131 0)
(0.1526 0.0125819 0)
(0.151832 0.0165939 0)
(0.151688 0.0214451 0)
(0.152735 0.026487 0)
(0.100027 -0.00010725 0)
(0.100182 -0.000205777 0)
(0.100435 -0.000295504 0)
(0.100766 -0.000378528 0)
(0.101169 -0.000456638 0)
(0.101637 -0.000530914 0)
(0.102163 -0.000602069 0)
(0.102743 -0.000670654 0)
(0.103371 -0.000737089 0)
(0.104045 -0.000801698 0)
(0.10476 -0.000864738 0)
(0.105513 -0.000926418 0)
(0.106302 -0.000986904 0)
(0.107124 -0.00104633 0)
(0.107976 -0.00110481 0)
(0.108856 -0.00116243 0)
(0.109763 -0.00121926 0)
(0.110693 -0.00127536 0)
(0.111646 -0.00133075 0)
(0.112619 -0.00138547 0)
(0.113611 -0.00143954 0)
(0.114621 -0.00149297 0)
(0.115646 -0.00154575 0)
(0.116685 -0.00159787 0)
(0.117738 -0.00164931 0)
(0.118802 -0.00170007 0)
(0.119876 -0.00175009 0)
(0.120958 -0.00179935 0)
(0.122049 -0.00184779 0)
(0.123146 -0.00189538 0)
(0.124248 -0.00194205 0)
(0.125355 -0.00198774 0)
(0.126464 -0.00203237 0)
(0.127575 -0.00207587 0)
(0.128686 -0.00211814 0)
(0.129798 -0.0021591 0)
(0.130907 -0.00219863 0)
(0.132014 -0.00223661 0)
(0.133117 -0.00227292 0)
(0.134215 -0.00230741 0)
(0.135308 -0.00233991 0)
(0.136393 -0.00237026 0)
(0.137469 -0.00239826 0)
(0.138537 -0.00242368 0)
(0.139594 -0.00244628 0)
(0.140639 -0.00246578 0)
(0.14167 -0.00248189 0)
(0.142688 -0.00249424 0)
(0.14369 -0.00250245 0)
(0.144675 -0.00250606 0)
(0.145641 -0.00250457 0)
(0.146587 -0.00249739 0)
(0.147512 -0.00248384 0)
(0.148413 -0.00246315 0)
(0.149289 -0.0024344 0)
(0.150138 -0.00239655 0)
(0.150957 -0.00234834 0)
(0.151744 -0.00228831 0)
(0.152496 -0.00221473 0)
(0.153212 -0.00212551 0)
(0.153886 -0.00201814 0)
(0.154517 -0.0018896 0)
(0.1551 -0.0017362 0)
(0.15563 -0.00155337 0)
(0.156104 -0.00133551 0)
(0.156515 -0.00107558 0)
(0.156858 -0.000764745 0)
(0.157127 -0.00039182 0)
(0.157314 5.7441e-05 0)
(0.157415 0.000601005 0)
(0.157422 0.00126237 0)
(0.157332 0.00207187 0)
(0.157148 0.00306857 0)
(0.156875 0.00430228 0)
(0.156538 0.00583506 0)
(0.15618 0.00774098 0)
(0.155881 0.0101003 0)
(0.155772 0.0129811 0)
(0.156049 0.0163937 0)
(0.156964 0.0201928 0)
(0.158748 0.0239053 0)
(0.100024 -0.000133162 0)
(0.100175 -0.000258099 0)
(0.100423 -0.000371529 0)
(0.100749 -0.000476632 0)
(0.101146 -0.000575505 0)
(0.101608 -0.000669495 0)
(0.102129 -0.000759513 0)
(0.102703 -0.00084626 0)
(0.103325 -0.00093027 0)
(0.103993 -0.00101195 0)
(0.104702 -0.00109164 0)
(0.105449 -0.00116959 0)
(0.106231 -0.00124602 0)
(0.107046 -0.00132111 0)
(0.107891 -0.00139498 0)
(0.108764 -0.00146775 0)
(0.109664 -0.00153951 0)
(0.110587 -0.00161032 0)
(0.111532 -0.00168024 0)
(0.112497 -0.00174931 0)
(0.113481 -0.00181753 0)
(0.114483 -0.00188493 0)
(0.115499 -0.0019515 0)
(0.11653 -0.00201722 0)
(0.117574 -0.00208208 0)
(0.118628 -0.00214605 0)
(0.119693 -0.00220908 0)
(0.120767 -0.00227114 0)
(0.121847 -0.00233215 0)
(0.122934 -0.00239207 0)
(0.124027 -0.00245081 0)
(0.125122 -0.00250829 0)
(0.126221 -0.00256443 0)
(0.127321 -0.00261912 0)
(0.128422 -0.00267226 0)
(0.129522 -0.00272371 0)
(0.13062 -0.00277334 0)
(0.131715 -0.00282101 0)
(0.132806 -0.00286655 0)
(0.133893 -0.00290978 0)
(0.134973 -0.00295049 0)
(0.136045 -0.00298848 0)
(0.137109 -0.00302348 0)
(0.138164 -0.00305523 0)
(0.139208 -0.00308343 0)
(0.14024 -0.00310772 0)
(0.141259 -0.00312774 0)
(0.142264 -0.00314304 0)
(0.143253 -0.00315314 0)
(0.144225 -0.0031575 0)
(0.145179 -0.00315547 0)
(0.146113 -0.00314635 0)
(0.147026 -0.00312932 0)
(0.147915 -0.00310343 0)
(0.14878 -0.00306758 0)
(0.149619 -0.00302051 0)
(0.150429 -0.00296073 0)
(0.151209 -0.0028865 0)
(0.151956 -0.00279578 0)
(0.152668 -0.00268612 0)
(0.153342 -0.00255465 0)
(0.153975 -0.00239788 0)
(0.154565 -0.00221163 0)
(0.155108 -0.00199086 0)
(0.155601 -0.00172939 0)
(0.156041 -0.00141968 0)
(0.156424 -0.00105246 0)
(0.156748 -0.000616304 0)
(0.15701 -9.71417e-05 0)
(0.15721 0.0005221 0)
(0.157348 0.00126239 0)
(0.157431 0.00214952 0)
(0.157469 0.00321436 0)
(0.157483 0.00449295 0)
(0.157507 0.00602525 0)
(0.157594 0.0078517 0)
(0.157823 0.0100051 0)
(0.158299 0.0124947 0)
(0.159156 0.0152772 0)
(0.160534 0.0182109 0)
(0.162512 0.0210028 0)
(0.100021 -0.000159827 0)
(0.100169 -0.000312675 0)
(0.100411 -0.000451251 0)
(0.10073 -0.000579857 0)
(0.101121 -0.000700867 0)
(0.101576 -0.000815877 0)
(0.10209 -0.000926005 0)
(0.102656 -0.00103211 0)
(0.103272 -0.00113484 0)
(0.103932 -0.0012347 0)
(0.104633 -0.0013321 0)
(0.105372 -0.00142736 0)
(0.106146 -0.00152074 0)
(0.106953 -0.00161245 0)
(0.10779 -0.00170266 0)
(0.108655 -0.00179152 0)
(0.109545 -0.00187912 0)
(0.110459 -0.00196555 0)
(0.111395 -0.00205086 0)
(0.112351 -0.00213512 0)
(0.113325 -0.00221833 0)
(0.114316 -0.00230051 0)
(0.115322 -0.00238165 0)
(0.116343 -0.00246175 0)
(0.117375 -0.00254078 0)
(0.118419 -0.0026187 0)
(0.119473 -0.00269545 0)
(0.120534 -0.00277099 0)
(0.121603 -0.00284524 0)
(0.122678 -0.00291812 0)
(0.123758 -0.00298955 0)
(0.124842 -0.00305943 0)
(0.125927 -0.00312764 0)
(0.127015 -0.00319406 0)
(0.128102 -0.00325856 0)
(0.129188 -0.00332098 0)
(0.130273 -0.00338117 0)
(0.131354 -0.00343893 0)
(0.132431 -0.00349409 0)
(0.133503 -0.0035464 0)
(0.134568 -0.00359564 0)
(0.135626 -0.00364153 0)
(0.136675 -0.00368378 0)
(0.137715 -0.00372206 0)
(0.138744 -0.00375601 0)
(0.139761 -0.00378522 0)
(0.140765 -0.00380923 0)
(0.141755 -0.00382754 0)
(0.142729 -0.00383956 0)
(0.143686 -0.00384464 0)
(0.144626 -0.00384206 0)
(0.145545 -0.00383097 0)
(0.146445 -0.00381042 0)
(0.147322 -0.00377931 0)
(0.148175 -0.00373639 0)
(0.149003 -0.0036802 0)
(0.149803 -0.00360906 0)
(0.150575 -0.00352102 0)
(0.151317 -0.00341379 0)
(0.152026 -0.00328469 0)
(0.1527 -0.00313056 0)
(0.153338 -0.00294768 0)
(0.153938 -0.00273163 0)
(0.154497 -0.00247715 0)
(0.155015 -0.00217798 0)
(0.155489 -0.00182663 0)
(0.155919 -0.00141418 0)
(0.156305 -0.000929976 0)
(0.156649 -0.000361392 0)
(0.156954 0.000306404 0)
(0.157226 0.00108991 0)
(0.157476 0.00200841 0)
(0.157721 0.00308307 0)
(0.157986 0.00433586 0)
(0.158307 0.00578732 0)
(0.158731 0.00745265 0)
(0.15932 0.00933516 0)
(0.160147 0.0114162 0)
(0.161293 0.0136409 0)
(0.162824 0.0159016 0)
(0.16476 0.0180283 0)
(0.100018 -0.000187274 0)
(0.100162 -0.000369464 0)
(0.100398 -0.000534631 0)
(0.100711 -0.00068817 0)
(0.101094 -0.000832722 0)
(0.101541 -0.000970102 0)
(0.102046 -0.00110163 0)
(0.102605 -0.00122833 0)
(0.103211 -0.00135097 0)
(0.103863 -0.00147016 0)
(0.104555 -0.00158638 0)
(0.105285 -0.00170002 0)
(0.106049 -0.00181139 0)
(0.106846 -0.00192074 0)
(0.107673 -0.00202829 0)
(0.108527 -0.00213418 0)
(0.109407 -0.00223856 0)
(0.11031 -0.00234151 0)
(0.111235 -0.00244311 0)
(0.11218 -0.00254342 0)
(0.113142 -0.00264246 0)
(0.114121 -0.00274025 0)
(0.115116 -0.00283678 0)
(0.116123 -0.00293203 0)
(0.117143 -0.00302598 0)
(0.118174 -0.00311858 0)
(0.119214 -0.00320976 0)
(0.120262 -0.00329947 0)
(0.121317 -0.00338761 0)
(0.122378 -0.0034741 0)
(0.123444 -0.00355883 0)
(0.124512 -0.00364167 0)
(0.125583 -0.0037225 0)
(0.126655 -0.00380118 0)
(0.127727 -0.00387753 0)
(0.128797 -0.00395138 0)
(0.129866 -0.00402255 0)
(0.130931 -0.00409081 0)
(0.131991 -0.00415593 0)
(0.133046 -0.00421766 0)
(0.134095 -0.0042757 0)
(0.135136 -0.00432976 0)
(0.136168 -0.00437947 0)
(0.137191 -0.00442447 0)
(0.138202 -0.00446433 0)
(0.139202 -0.00449857 0)
(0.140189 -0.00452667 0)
(0.141162 -0.00454805 0)
(0.142119 -0.00456204 0)
(0.14306 -0.00456791 0)
(0.143983 -0.00456482 0)
(0.144888 -0.00455183 0)
(0.145772 -0.00452787 0)
(0.146635 -0.00449172 0)
(0.147475 -0.004442 0)
(0.148292 -0.00437711 0)
(0.149083 -0.00429524 0)
(0.149847 -0.00419427 0)
(0.150584 -0.00407179 0)
(0.151291 -0.00392499 0)
(0.151967 -0.00375061 0)
(0.152612 -0.00354488 0)
(0.153224 -0.0033034 0)
(0.153803 -0.00302106 0)
(0.154349 -0.00269193 0)
(0.154861 -0.00230912 0)
(0.155342 -0.00186469 0)
(0.155793 -0.00134958 0)
(0.156219 -0.000753478 0)
(0.156627 -6.48806e-05 0)
(0.157026 0.000728227 0)
(0.157428 0.00163788 0)
(0.157852 0.00267625 0)
(0.158322 0.00385372 0)
(0.158867 0.00517682 0)
(0.159527 0.00664519 0)
(0.160342 0.00824754 0)
(0.16136 0.00995657 0)
(0.162622 0.0117236 0)
(0.164156 0.0134748 0)
(0.165958 0.0151137 0)
(0.100015 -0.000215543 0)
(0.100156 -0.000428441 0)
(0.100385 -0.00062164 0)
(0.10069 -0.00080154 0)
(0.101065 -0.000971055 0)
(0.101504 -0.00113218 0)
(0.102 -0.00128644 0)
(0.102548 -0.00143501 0)
(0.103145 -0.00157878 0)
(0.103786 -0.00171849 0)
(0.104468 -0.00185467 0)
(0.105187 -0.0019878 0)
(0.105941 -0.00211824 0)
(0.106726 -0.00224628 0)
(0.107541 -0.00237216 0)
(0.108384 -0.00249608 0)
(0.109251 -0.00261819 0)
(0.110142 -0.0027386 0)
(0.111053 -0.00285739 0)
(0.111985 -0.00297464 0)
(0.112934 -0.00309037 0)
(0.113899 -0.00320459 0)
(0.114879 -0.00331731 0)
(0.115873 -0.00342851 0)
(0.116878 -0.00353813 0)
(0.117893 -0.00364614 0)
(0.118918 -0.00375246 0)
(0.119951 -0.00385702 0)
(0.12099 -0.00395971 0)
(0.122034 -0.00406042 0)
(0.123083 -0.00415904 0)
(0.124135 -0.00425542 0)
(0.125188 -0.00434941 0)
(0.126243 -0.00444083 0)
(0.127297 -0.00452951 0)
(0.128349 -0.00461523 0)
(0.1294 -0.00469778 0)
(0.130446 -0.0047769 0)
(0.131488 -0.00485233 0)
(0.132524 -0.00492377 0)
(0.133554 -0.00499089 0)
(0.134576 -0.00505334 0)
(0.135589 -0.00511073 0)
(0.136592 -0.00516262 0)
(0.137585 -0.00520854 0)
(0.138566 -0.00524794 0)
(0.139533 -0.00528026 0)
(0.140487 -0.00530482 0)
(0.141426 -0.0053209 0)
(0.142349 -0.00532768 0)
(0.143255 -0.00532425 0)
(0.144143 -0.00530959 0)
(0.145011 -0.00528252 0)
(0.145859 -0.00524176 0)
(0.146686 -0.00518581 0)
(0.147491 -0.00511303 0)
(0.148273 -0.00502149 0)
(0.14903 -0.00490905 0)
(0.149762 -0.00477326 0)
(0.150468 -0.00461131 0)
(0.151148 -0.00442003 0)
(0.151802 -0.0041958 0)
(0.152428 -0.00393449 0)
(0.153029 -0.00363147 0)
(0.153604 -0.00328148 0)
(0.154156 -0.00287868 0)
(0.154687 -0.00241657 0)
(0.155203 -0.00188813 0)
(0.155707 -0.00128582 0)
(0.156209 -0.000601784 0)
(0.156719 0.000171965 0)
(0.15725 0.00104139 0)
(0.157818 0.00201122 0)
(0.158442 0.0030838 0)
(0.159147 0.00425712 0)
(0.159957 0.00552308 0)
(0.160902 0.00686545 0)
(0.162005 0.00825794 0)
(0.163287 0.00966299 0)
(0.164757 0.0110323 0)
(0.166404 0.0123114 0)
(0.100011 -0.000244678 0)
(0.10015 -0.000489595 0)
(0.100372 -0.000712257 0)
(0.100669 -0.000919937 0)
(0.101035 -0.00111584 0)
(0.101464 -0.00130211 0)
(0.10195 -0.00148044 0)
(0.102488 -0.00165218 0)
(0.103074 -0.00181836 0)
(0.103703 -0.00197979 0)
(0.104373 -0.00213712 0)
(0.10508 -0.00229087 0)
(0.105821 -0.00244147 0)
(0.106593 -0.00258926 0)
(0.107395 -0.00273452 0)
(0.108224 -0.00287747 0)
(0.109077 -0.00301828 0)
(0.109954 -0.0031571 0)
(0.110851 -0.003294 0)
(0.111767 -0.00342907 0)
(0.112701 -0.00356235 0)
(0.11365 -0.00369385 0)
(0.114614 -0.00382357 0)
(0.115591 -0.00395149 0)
(0.11658 -0.00407755 0)
(0.117578 -0.0042017 0)
(0.118586 -0.00432385 0)
(0.1196 -0.00444392 0)
(0.120621 -0.0045618 0)
(0.121647 -0.00467735 0)
(0.122677 -0.00479043 0)
(0.12371 -0.00490089 0)
(0.124745 -0.00500854 0)
(0.125779 -0.0051132 0)
(0.126813 -0.00521465 0)
(0.127846 -0.00531265 0)
(0.128876 -0.00540696 0)
(0.129902 -0.00549729 0)
(0.130923 -0.00558334 0)
(0.131938 -0.00566478 0)
(0.132947 -0.00574123 0)
(0.133948 -0.00581231 0)
(0.13494 -0.00587758 0)
(0.135922 -0.00593655 0)
(0.136893 -0.00598869 0)
(0.137853 -0.00603343 0)
(0.1388 -0.00607011 0)
(0.139734 -0.00609804 0)
(0.140653 -0.00611641 0)
(0.141557 -0.00612436 0)
(0.142444 -0.00612091 0)
(0.143314 -0.00610497 0)
(0.144166 -0.00607535 0)
(0.144999 -0.00603068 0)
(0.145812 -0.00596945 0)
(0.146605 -0.00588998 0)
(0.147377 -0.00579037 0)
(0.148127 -0.0056685 0)
(0.148856 -0.00552201 0)
(0.149562 -0.00534825 0)
(0.150246 -0.00514427 0)
(0.150909 -0.0049068 0)
(0.151551 -0.00463222 0)
(0.152174 -0.00431658 0)
(0.152779 -0.0039556 0)
(0.15337 -0.00354469 0)
(0.153949 -0.00307906 0)
(0.154523 -0.0025538 0)
(0.155097 -0.00196414 0)
(0.15568 -0.00130561 0)
(0.156281 -0.00057436 0)
(0.156912 0.000232777 0)
(0.157587 0.00111497 0)
(0.15832 0.00206918 0)
(0.159127 0.00308932 0)
(0.160025 0.00416472 0)
(0.16103 0.00527937 0)
(0.162155 0.00641158 0)
(0.163407 0.00753435 0)
(0.164787 0.00861682 0)
(0.166283 0.00962774 0)
(0.100007 -0.000274724 0)
(0.100143 -0.000552923 0)
(0.10036 -0.000806463 0)
(0.100648 -0.00104333 0)
(0.101005 -0.00126703 0)
(0.101423 -0.00147984 0)
(0.101898 -0.00168361 0)
(0.102424 -0.00187985 0)
(0.102998 -0.0020697 0)
(0.103614 -0.00225409 0)
(0.104271 -0.00243376 0)
(0.104964 -0.00260929 0)
(0.105691 -0.00278118 0)
(0.106449 -0.0029498 0)
(0.107236 -0.00311549 0)
(0.108049 -0.00327849 0)
(0.108887 -0.00343899 0)
(0.109747 -0.00359716 0)
(0.110628 -0.0037531 0)
(0.111527 -0.00390689 0)
(0.112444 -0.00405859 0)
(0.113376 -0.0042082 0)
(0.114322 -0.00435572 0)
(0.11528 -0.00450113 0)
(0.11625 -0.00464437 0)
(0.117229 -0.00478537 0)
(0.118217 -0.00492405 0)
(0.119212 -0.00506029 0)
(0.120213 -0.00519397 0)
(0.121219 -0.00532494 0)
(0.122228 -0.00545305 0)
(0.12324 -0.0055781 0)
(0.124252 -0.00569992 0)
(0.125266 -0.00581826 0)
(0.126278 -0.00593291 0)
(0.127288 -0.00604358 0)
(0.128295 -0.00615001 0)
(0.129299 -0.00625188 0)
(0.130297 -0.00634885 0)
(0.13129 -0.00644055 0)
(0.132275 -0.00652659 0)
(0.133253 -0.00660653 0)
(0.134222 -0.00667988 0)
(0.135182 -0.00674613 0)
(0.13613 -0.0068047 0)
(0.137068 -0.00685498 0)
(0.137993 -0.00689628 0)
(0.138905 -0.00692783 0)
(0.139803 -0.00694882 0)
(0.140686 -0.00695833 0)
(0.141553 -0.00695536 0)
(0.142405 -0.0069388 0)
(0.143239 -0.00690742 0)
(0.144057 -0.00685987 0)
(0.144856 -0.00679468 0)
(0.145637 -0.00671019 0)
(0.146399 -0.00660459 0)
(0.147143 -0.00647591 0)
(0.147868 -0.00632196 0)
(0.148575 -0.00614037 0)
(0.149264 -0.00592857 0)
(0.149937 -0.00568377 0)
(0.150594 -0.00540303 0)
(0.151237 -0.00508322 0)
(0.15187 -0.00472116 0)
(0.152496 -0.00431358 0)
(0.153118 -0.00385736 0)
(0.153742 -0.0033496 0)
(0.154374 -0.00278786 0)
(0.15502 -0.0021704 0)
(0.15569 -0.00149644 0)
(0.156394 -0.000766371 0)
(0.157141 1.84188e-05 0)
(0.157942 0.000852754 0)
(0.158807 0.00172747 0)
(0.159746 0.00263225 0)
(0.160767 0.0035536 0)
(0.161875 0.00447514 0)
(0.163072 0.00537819 0)
(0.164354 0.00624315 0)
(0.165713 0.00705186 0)
(0.100004 -0.000305715 0)
(0.100137 -0.00061842 0)
(0.100347 -0.000904232 0)
(0.100627 -0.00117167 0)
(0.100973 -0.00142457 0)
(0.101381 -0.00166531 0)
(0.101844 -0.00189589 0)
(0.102357 -0.00211794 0)
(0.102917 -0.00233276 0)
(0.10352 -0.00254136 0)
(0.104162 -0.00274457 0)
(0.10484 -0.00294305 0)
(0.105551 -0.00313734 0)
(0.106293 -0.0033279 0)
(0.107064 -0.00351507 0)
(0.10786 -0.00369913 0)
(0.108681 -0.00388032 0)
(0.109523 -0.0040588 0)
(0.110385 -0.0042347 0)
(0.111266 -0.0044081 0)
(0.112163 -0.00457907 0)
(0.113076 -0.00474762 0)
(0.114002 -0.00491375 0)
(0.11494 -0.00507741 0)
(0.115889 -0.00523856 0)
(0.116847 -0.00539712 0)
(0.117814 -0.00555298 0)
(0.118787 -0.00570602 0)
(0.119766 -0.0058561 0)
(0.120749 -0.00600306 0)
(0.121735 -0.00614672 0)
(0.122724 -0.00628688 0)
(0.123713 -0.00642331 0)
(0.124702 -0.00655578 0)
(0.125691 -0.00668402 0)
(0.126677 -0.00680773 0)
(0.12766 -0.00692662 0)
(0.128639 -0.00704034 0)
(0.129613 -0.00714852 0)
(0.13058 -0.00725075 0)
(0.131541 -0.00734662 0)
(0.132494 -0.00743565 0)
(0.133439 -0.00751732 0)
(0.134374 -0.00759109 0)
(0.135298 -0.00765635 0)
(0.136211 -0.00771245 0)
(0.137113 -0.00775868 0)
(0.138002 -0.00779425 0)
(0.138878 -0.00781832 0)
(0.139739 -0.00782996 0)
(0.140587 -0.00782818 0)
(0.141419 -0.00781188 0)
(0.142236 -0.00777985 0)
(0.143037 -0.00773081 0)
(0.143822 -0.00766334 0)
(0.144591 -0.00757591 0)
(0.145343 -0.00746688 0)
(0.14608 -0.00733448 0)
(0.146802 -0.00717681 0)
(0.147509 -0.00699186 0)
(0.148202 -0.00677753 0)
(0.148883 -0.00653163 0)
(0.149554 -0.00625194 0)
(0.150216 -0.00593622 0)
(0.150873 -0.00558235 0)
(0.151528 -0.00518835 0)
(0.152184 -0.00475253 0)
(0.152848 -0.00427366 0)
(0.153523 -0.00375108 0)
(0.154217 -0.00318498 0)
(0.154934 -0.00257651 0)
(0.155684 -0.00192807 0)
(0.156472 -0.00124328 0)
(0.157307 -0.000526894 0)
(0.158196 0.000215125 0)
(0.159142 0.000972721 0)
(0.160149 0.00173345 0)
(0.161219 0.0024856 0)
(0.16235 0.00321665 0)
(0.163538 0.00391428 0)
(0.164775 0.00456796 0)
(0.0999993 -0.000337679 0)
(0.10013 -0.000686078 0)
(0.100334 -0.00100552 0)
(0.100605 -0.00130491 0)
(0.100941 -0.00158838 0)
(0.101337 -0.00185843 0)
(0.101787 -0.00211716 0)
(0.102287 -0.00236635 0)
(0.102833 -0.0026074 0)
(0.10342 -0.00284146 0)
(0.104047 -0.00306941 0)
(0.104708 -0.00329201 0)
(0.105403 -0.00350985 0)
(0.106127 -0.00372342 0)
(0.10688 -0.00393312 0)
(0.107657 -0.00413927 0)
(0.108459 -0.00434212 0)
(0.109281 -0.00454186 0)
(0.110124 -0.00473864 0)
(0.110984 -0.00493254 0)
(0.11186 -0.00512363 0)
(0.112752 -0.00531193 0)
(0.113656 -0.00549743 0)
(0.114572 -0.0056801 0)
(0.115498 -0.00585987 0)
(0.116433 -0.00603665 0)
(0.117376 -0.00621033 0)
(0.118325 -0.00638078 0)
(0.11928 -0.00654784 0)
(0.120239 -0.00671132 0)
(0.1212 -0.00687104 0)
(0.122163 -0.00702677 0)
(0.123127 -0.00717826 0)
(0.124091 -0.00732525 0)
(0.125053 -0.00746746 0)
(0.126013 -0.00760456 0)
(0.12697 -0.00773623 0)
(0.127922 -0.00786209 0)
(0.12887 -0.00798176 0)
(0.129811 -0.0080948 0)
(0.130745 -0.00820075 0)
(0.131672 -0.00829913 0)
(0.13259 -0.0083894 0)
(0.133499 -0.00847098 0)
(0.134398 -0.00854324 0)
(0.135286 -0.00860553 0)
(0.136163 -0.00865712 0)
(0.137028 -0.00869722 0)
(0.13788 -0.00872499 0)
(0.13872 -0.00873954 0)
(0.139546 -0.00873989 0)
(0.140358 -0.00872498 0)
(0.141157 -0.00869371 0)
(0.141941 -0.00864486 0)
(0.142712 -0.00857716 0)
(0.143468 -0.00848925 0)
(0.144211 -0.00837972 0)
(0.144941 -0.00824706 0)
(0.145658 -0.00808972 0)
(0.146364 -0.00790613 0)
(0.14706 -0.00769469 0)
(0.147747 -0.00745384 0)
(0.148428 -0.00718207 0)
(0.149105 -0.006878 0)
(0.14978 -0.00654046 0)
(0.150457 -0.00616854 0)
(0.151139 -0.00576172 0)
(0.151831 -0.00531997 0)
(0.152535 -0.00484388 0)
(0.153259 -0.0043348 0)
(0.154005 -0.0037949 0)
(0.154779 -0.00322735 0)
(0.155585 -0.00263635 0)
(0.156429 -0.00202713 0)
(0.157312 -0.00140578 0)
(0.15824 -0.000778828 0)
(0.159213 -0.000152787 0)
(0.160231 0.000463337 0)
(0.161292 0.00106041 0)
(0.16239 0.00162888 0)
(0.16352 0.00216268 0)
(0.0999948 -0.000370626 0)
(0.100123 -0.000755873 0)
(0.100321 -0.00111027 0)
(0.100583 -0.00144294 0)
(0.100908 -0.00175833 0)
(0.101292 -0.00205903 0)
(0.101729 -0.00234724 0)
(0.102214 -0.00262486 0)
(0.102745 -0.00289343 0)
(0.103316 -0.00315416 0)
(0.103925 -0.00340806 0)
(0.104569 -0.00365592 0)
(0.105245 -0.00389842 0)
(0.105951 -0.00413608 0)
(0.106684 -0.00436937 0)
(0.107441 -0.00459861 0)
(0.108222 -0.00482409 0)
(0.109023 -0.00504602 0)
(0.109844 -0.00526456 0)
(0.110682 -0.00547981 0)
(0.111535 -0.00569184 0)
(0.112403 -0.00590068 0)
(0.113283 -0.00610631 0)
(0.114175 -0.0063087 0)
(0.115077 -0.00650777 0)
(0.115987 -0.00670342 0)
(0.116904 -0.00689554 0)
(0.117828 -0.00708397 0)
(0.118756 -0.00726854 0)
(0.119688 -0.00744905 0)
(0.120623 -0.00762529 0)
(0.121559 -0.00779703 0)
(0.122495 -0.00796398 0)
(0.123432 -0.00812588 0)
(0.124366 -0.0082824 0)
(0.125298 -0.00843322 0)
(0.126227 -0.00857798 0)
(0.127151 -0.00871628 0)
(0.12807 -0.00884771 0)
(0.128983 -0.00897183 0)
(0.129889 -0.00908815 0)
(0.130788 -0.00919617 0)
(0.131678 -0.00929535 0)
(0.13256 -0.00938508 0)
(0.133432 -0.00946476 0)
(0.134293 -0.0095337 0)
(0.135144 -0.00959121 0)
(0.135984 -0.00963651 0)
(0.136813 -0.00966879 0)
(0.137629 -0.00968721 0)
(0.138433 -0.00969085 0)
(0.139225 -0.00967874 0)
(0.140004 -0.00964987 0)
(0.140771 -0.00960319 0)
(0.141526 -0.00953759 0)
(0.14227 -0.00945194 0)
(0.143002 -0.00934507 0)
(0.143723 -0.0092158 0)
(0.144435 -0.00906297 0)
(0.145138 -0.00888544 0)
(0.145834 -0.00868212 0)
(0.146525 -0.00845204 0)
(0.147212 -0.00819435 0)
(0.147898 -0.00790841 0)
(0.148585 -0.00759382 0)
(0.149276 -0.0072505 0)
(0.149974 -0.00687876 0)
(0.150681 -0.00647939 0)
(0.151402 -0.00605369 0)
(0.15214 -0.00560359 0)
(0.152898 -0.00513166 0)
(0.153679 -0.00464115 0)
(0.154485 -0.00413598 0)
(0.15532 -0.00362075 0)
(0.156184 -0.0031006 0)
(0.15708 -0.00258116 0)
(0.158005 -0.00206819 0)
(0.158962 -0.00156738 0)
(0.159946 -0.00108384 0)
(0.160956 -0.000621163 0)
(0.161987 -0.000183678 0)
(0.0999899 -0.00040455 0)
(0.100116 -0.000827759 0)
(0.100308 -0.00121838 0)
(0.100561 -0.00158562 0)
(0.100874 -0.00193423 0)
(0.101245 -0.00226688 0)
(0.101668 -0.00258587 0)
(0.102138 -0.0028932 0)
(0.102652 -0.00319051 0)
(0.103207 -0.00347913 0)
(0.103798 -0.00376012 0)
(0.104423 -0.00403438 0)
(0.105079 -0.00430262 0)
(0.105764 -0.00456544 0)
(0.106476 -0.00482331 0)
(0.107211 -0.00507662 0)
(0.107969 -0.00532567 0)
(0.108748 -0.00557069 0)
(0.109545 -0.00581186 0)
(0.110359 -0.00604929 0)
(0.111187 -0.00628306 0)
(0.11203 -0.00651318 0)
(0.112885 -0.00673966 0)
(0.11375 -0.00696244 0)
(0.114625 -0.00718145 0)
(0.115509 -0.00739658 0)
(0.116399 -0.0076077 0)
(0.117294 -0.00781464 0)
(0.118194 -0.00801722 0)
(0.119098 -0.00821523 0)
(0.120004 -0.00840844 0)
(0.120911 -0.00859658 0)
(0.121818 -0.00877937 0)
(0.122724 -0.00895652 0)
(0.123629 -0.00912769 0)