/*--------------------------------*- C++ -*----------------------------------*\
| =========                 |                                                 |
| \\      /  F ield         | OpenFOAM: The Open Source CFD Toolbox           |
|  \\    /   O peration     | Version:  2106                                  |
|   \\  /    A nd           | Website:  www.openfoam.com                      |
|    \\/     M anipulation  |                                                 |
\*---------------------------------------------------------------------------*/
FoamFile
{
    version     2.0;
    format      ascii;
    arch        "LSB;label=32;scalar=64";
    class       surfaceScalarField;
    location    "4";
    object      phi;
}
// * * * * * * * * * * * * * * * * * * * * * * * * * * * * * * * * * * * * * //

dimensions      [1 0 -1 0 0 0 0];

oriented        oriented;

internalField   nonuniform List<scalar> 
23692
(
9.31644e-05
-8.48839e-08
9.3318e-05
-1.53561e-07
9.35325e-05
-2.14458e-07
9.38004e-05
-2.67807e-07
9.4116e-05
-3.1538e-07
9.44744e-05
-3.58258e-07
9.48718e-05
-3.97168e-07
9.53047e-05
-4.3269e-07
9.57703e-05
-4.6527e-07
9.62658e-05
-4.95266e-07
9.67891e-05
-5.22966e-07
9.73381e-05
-5.48607e-07
9.79108e-05
-5.72387e-07
9.85057e-05
-5.94467e-07
9.91211e-05
-6.14984e-07
9.97556e-05
-6.34053e-07
0.000100408
-6.51768e-07
0.000101076
-6.68209e-07
0.00010176
-6.83445e-07
0.000102458
-6.97533e-07
0.000103169
-7.10518e-07
0.000103892
-7.22439e-07
0.000104626
-7.33331e-07
0.00010537
-7.43219e-07
0.000106123
-7.52128e-07
0.000106883
-7.60076e-07
0.000107651
-7.67078e-07
0.000108425
-7.7315e-07
0.000109204
-7.78303e-07
0.000109987
-7.82543e-07
0.000110773
-7.85884e-07
0.000111562
-7.8833e-07
0.000112352
-7.89889e-07
0.000113143
-7.90563e-07
0.000113934
-7.90359e-07
0.000114724
-7.89274e-07
0.000115512
-7.87311e-07
0.000116297
-7.84466e-07
0.000117078
-7.80734e-07
0.000117855
-7.76106e-07
0.000118626
-7.70571e-07
0.000119391
-7.64111e-07
0.000120148
-7.56706e-07
0.000120897
-7.48329e-07
0.000121636
-7.38949e-07
0.000122365
-7.28523e-07
0.000123082
-7.17004e-07
0.000123787
-7.04334e-07
0.000124478
-6.90445e-07
0.000125154
-6.75257e-07
0.000125813
-6.58674e-07
0.000126454
-6.40582e-07
0.000127075
-6.2085e-07
0.000127675
-5.99322e-07
0.000128251
-5.75812e-07
0.000128801
-5.50101e-07
0.000129324
-5.21926e-07
0.000129815
-4.90973e-07
0.000130272
-4.56867e-07
0.000130691
-4.19147e-07
0.000131069
-3.77253e-07
0.0001314
-3.30495e-07
0.000131678
-2.78016e-07
0.000131897
-2.18737e-07
0.000132049
-1.51289e-07
0.000132123
-7.39154e-08
0.000132107
1.56675e-08
0.000131987
1.2057e-07
0.000131742
2.45e-07
0.000131348
3.94798e-07
0.00013077
5.78225e-07
0.000129963
8.07274e-07
0.000128863
1.09982e-06
0.00012738
1.48327e-06
0.000125379
2.0008e-06
0.000122657
2.72232e-06
0.000118894
3.76352e-06
0.000113573
5.32073e-06
0.000105822
7.75157e-06
9.40422e-05
1.17799e-05
1.94508e-05
7.45917e-05
9.96877e-05
-1.73503e-07
9.98512e-05
-3.1698e-07
0.00010008
-4.43222e-07
0.000100366
-5.53625e-07
0.000100703
-6.52106e-07
0.000101086
-7.40858e-07
0.00010151
-8.21386e-07
0.000101973
-8.94889e-07
0.00010247
-9.62303e-07
0.000102999
-1.02436e-06
0.000103558
-1.08167e-06
0.000104145
-1.13471e-06
0.000104757
-1.1839e-06
0.000105392
-1.22956e-06
0.00010605
-1.27199e-06
0.000106728
-1.31142e-06
0.000107424
-1.34804e-06
0.000108139
-1.38203e-06
0.000108869
-1.41352e-06
0.000109615
-1.44263e-06
0.000110374
-1.46946e-06
0.000111147
-1.49409e-06
0.00011193
-1.51658e-06
0.000112725
-1.53699e-06
0.000113529
-1.55538e-06
0.000114341
-1.57178e-06
0.000115161
-1.58622e-06
0.000115987
-1.59873e-06
0.000116818
-1.60933e-06
0.000117654
-1.61805e-06
0.000118494
-1.62491e-06
0.000119336
-1.62991e-06
0.00012018
-1.63308e-06
0.000121024
-1.63442e-06
0.000121869
-1.63393e-06
0.000122712
-1.63163e-06
0.000123552
-1.6275e-06
0.00012439
-1.62155e-06
0.000125224
-1.61377e-06
0.000126052
-1.60413e-06
0.000126875
-1.59261e-06
0.00012769
-1.57919e-06
0.000128498
-1.56381e-06
0.000129296
-1.54642e-06
0.000130085
-1.52695e-06
0.000130862
-1.50533e-06
0.000131627
-1.48145e-06
0.000132378
-1.45519e-06
0.000133115
-1.42642e-06
0.000133835
-1.39498e-06
0.000134537
-1.36065e-06
0.000135221
-1.32322e-06
0.000135882
-1.28242e-06
0.000136521
-1.23793e-06
0.000137135
-1.18936e-06
0.000137722
-1.13628e-06
0.000138279
-1.07815e-06
0.000138802
-1.01433e-06
0.00013929
-9.44069e-07
0.000139737
-8.66435e-07
0.000140141
-7.80302e-07
0.000140495
-6.84288e-07
0.000140794
-5.76675e-07
0.000141031
-4.5532e-07
0.000141197
-3.17514e-07
0.000141283
-1.59794e-07
0.000141277
2.23155e-08
0.000141163
2.34772e-07
0.000140923
4.85603e-07
0.000140532
7.85776e-07
0.00013996
1.15053e-06
0.000139166
1.60146e-06
0.000138096
2.16984e-06
0.000136678
2.9018e-06
0.000134812
3.86655e-06
0.000132366
5.16911e-06
0.000129161
6.96821e-06
0.000124983
9.49885e-06
0.000119635
1.30999e-05
0.000113248
1.81671e-05
2.44518e-05
0.000108247
0.000106667
-2.65361e-07
0.00010684
-4.90071e-07
0.000107083
-6.86152e-07
0.000107388
-8.57732e-07
0.000107746
-1.01071e-06
0.000108154
-1.14854e-06
0.000108607
-1.27357e-06
0.0001091
-1.38767e-06
0.00010963
-1.4923e-06
0.000110195
-1.58861e-06
0.000110791
-1.67752e-06
0.000111416
-1.75981e-06
0.000112069
-1.8361e-06
0.000112747
-1.90691e-06
0.000113448
-1.9727e-06
0.000114171
-2.03381e-06
0.000114914
-2.09057e-06
0.000115676
-2.14324e-06
0.000116455
-2.19202e-06
0.00011725
-2.23709e-06
0.000118059
-2.27862e-06
0.000118883
-2.31673e-06
0.000119718
-2.35152e-06
0.000120565
-2.38309e-06
0.000121422
-2.4115e-06
0.000122287
-2.43681e-06
0.000123161
-2.45908e-06
0.000124041
-2.47836e-06
0.000124927
-2.49468e-06
0.000125818
-2.50806e-06
0.000126712
-2.51855e-06
0.000127609
-2.52616e-06
0.000128507
-2.53092e-06
0.000129406
-2.53283e-06
0.000130305
-2.53192e-06
0.000131202
-2.52818e-06
0.000132097
-2.52161e-06
0.000132988
-2.51221e-06
0.000133875
-2.49996e-06
0.000134756
-2.48483e-06
0.000135631
-2.4668e-06
0.000136498
-2.4458e-06
0.000137357
-2.42177e-06
0.000138205
-2.39462e-06
0.000139043
-2.36427e-06
0.000139869
-2.33057e-06
0.000140681
-2.29338e-06
0.000141479
-2.25253e-06
0.000142261
-2.20779e-06
0.000143026
-2.15891e-06
0.000143771
-2.1056e-06
0.000144496
-2.04752e-06
0.000145198
-1.98424e-06
0.000145876
-1.91529e-06
0.000146527
-1.8401e-06
0.000147149
-1.75799e-06
0.000147739
-1.66817e-06
0.000148295
-1.56968e-06
0.000148813
-1.46138e-06
0.000149289
-1.34189e-06
0.000149718
-1.20955e-06
0.000150096
-1.06231e-06
0.000150418
-8.97654e-07
0.000150675
-7.1246e-07
0.000150861
-5.02809e-07
0.000150965
-2.6374e-07
0.000150977
1.1078e-08
0.000150882
3.29901e-07
0.000150664
7.03624e-07
0.000150303
1.14686e-06
0.000149775
1.67936e-06
0.000149048
2.32813e-06
0.000148088
3.13057e-06
0.000146851
4.1389e-06
0.000145291
5.42611e-06
0.000143368
7.09317e-06
0.000141061
9.27474e-06
0.000138425
1.21353e-05
0.000135692
1.58332e-05
0.000133503
2.03562e-05
2.49665e-05
0.000132988
0.000114135
-3.6024e-07
0.000114317
-6.72425e-07
0.000114574
-9.43118e-07
0.000114897
-1.18025e-06
0.000115278
-1.39158e-06
0.000115712
-1.5819e-06
0.000116193
-1.7545e-06
0.000116718
-1.91198e-06
0.000117282
-2.05635e-06
0.000117883
-2.1892e-06
0.000118518
-2.31182e-06
0.000119183
-2.42528e-06
0.000119878
-2.53044e-06
0.0001206
-2.62803e-06
0.000121346
-2.71866e-06
0.000122116
-2.80283e-06
0.000122907
-2.88098e-06
0.000123718
-2.95346e-06
0.000124547
-3.02057e-06
0.000125393
-3.08256e-06
0.000126254
-3.13965e-06
0.00012713
-3.192e-06
0.000128019
-3.23977e-06
0.00012892
-3.28307e-06
0.000129831
-3.32202e-06
0.000130752
-3.35668e-06
0.00013168
-3.38714e-06
0.000132616
-3.41346e-06
0.000133558
-3.43568e-06
0.000134504
-3.45386e-06
0.000135455
-3.46803e-06
0.000136407
-3.47823e-06
0.000137361
-3.48448e-06
0.000138316
-3.48681e-06
0.00013927
-3.48523e-06
0.000140222
-3.47974e-06
0.000141172
-3.47036e-06
0.000142117
-3.45706e-06
0.000143058
-3.43984e-06
0.000143992
-3.41865e-06
0.000144919
-3.39345e-06
0.000145838
-3.36416e-06
0.000146748
-3.3307e-06
0.000147647
-3.29296e-06
0.000148534
-3.25081e-06
0.000149408
-3.20406e-06
0.000150268
-3.15252e-06
0.000151112
-3.09595e-06
0.000151938
-3.03406e-06
0.000152747
-2.96652e-06
0.000153534
-2.89292e-06
0.0001543
-2.81281e-06
0.000155042
-2.72563e-06
0.000155758
-2.63075e-06
0.000156446
-2.5274e-06
0.000157103
-2.4147e-06
0.000157727
-2.2916e-06
0.000158314
-2.15684e-06
0.000158862
-2.00893e-06
0.000159367
-1.84609e-06
0.000159824
-1.66617e-06
0.000160228
-1.46653e-06
0.000160575
-1.244e-06
0.000160857
-9.94647e-07
0.000161069
-7.1359e-07
0.0001612
-3.94746e-07
0.000161242
-3.04909e-08
0.000161183
3.88872e-07
0.000161011
8.75752e-07
0.000160712
1.4464e-06
0.00016027
2.12193e-06
0.000159668
2.92996e-06
0.000158892
3.90659e-06
0.000157933
5.09879e-06
0.000156792
6.56662e-06
0.000155502
8.38386e-06
0.000154143
1.06336e-05
0.000152889
1.339e-05
0.000152053
1.66692e-05
0.000152102
2.03075e-05
2.37147e-05
0.000153354
0.000122125
-4.58057e-07
0.000122317
-8.63693e-07
0.000122588
-1.21395e-06
0.000122929
-1.52122e-06
0.000123332
-1.79497e-06
0.000123792
-2.0414e-06
0.000124303
-2.26483e-06
0.00012486
-2.46861e-06
0.000125459
-2.65537e-06
0.000126097
-2.82718e-06
0.000126772
-2.98571e-06
0.000127479
-3.13235e-06
0.000128218
-3.26821e-06
0.000128984
-3.39425e-06
0.000129777
-3.51126e-06
0.000130595
-3.61989e-06
0.000131435
-3.72071e-06
0.000132297
-3.81416e-06
0.000133177
-3.90065e-06
0.000134076
-3.9805e-06
0.000134991
-4.05398e-06
0.000135921
-4.12131e-06
0.000136865
-4.18271e-06
0.000137821
-4.23831e-06
0.000138788
-4.28825e-06
0.000139764
-4.33265e-06
0.000140749
-4.37159e-06
0.000141742
-4.40516e-06
0.00014274
-4.43343e-06
0.000143744
-4.45645e-06
0.000144751
-4.47428e-06
0.00014576
-4.48696e-06
0.000146771
-4.49453e-06
0.000147782
-4.49701e-06
0.000148792
-4.49443e-06
0.000149799
-4.4868e-06
0.000150804
-4.47413e-06
0.000151804
-4.4564e-06
0.000152798
-4.43358e-06
0.000153786
-4.40565e-06
0.000154766
-4.37252e-06
0.000155736
-4.33413e-06
0.000156697
-4.29037e-06
0.000157645
-4.24108e-06
0.000158581
-4.18611e-06
0.000159503
-4.12524e-06
0.000160409
-4.05823e-06
0.000161299
-3.98476e-06
0.00016217
-3.90448e-06
0.000163021
-3.81699e-06
0.00016385
-3.72177e-06
0.000164656
-3.61826e-06
0.000165437
-3.50579e-06
0.00016619
-3.38355e-06
0.000166914
-3.25064e-06
0.000167605
-3.10596e-06
0.000168262
-2.94824e-06
0.000168882
-2.77596e-06
0.000169461
-2.58736e-06
0.000169995
-2.38029e-06
0.000170482
-2.15222e-06
0.000170916
-1.9001e-06
0.000171292
-1.62025e-06
0.000171606
-1.30819e-06
0.000171852
-9.58466e-07
0.000172022
-5.64388e-07
0.000172109
-1.1774e-07
0.000172107
3.91533e-07
0.000172007
9.75895e-07
0.000171803
1.65107e-06
0.000171488
2.43658e-06
0.000171062
3.35653e-06
0.000170528
4.44031e-06
0.000169905
5.72291e-06
0.000169227
7.24419e-06
0.000168566
9.04571e-06
0.000168037
1.11624e-05
0.000167823
1.36046e-05
0.00016817
1.63219e-05
0.000169337
1.91406e-05
2.16784e-05
0.000171374
0.000130675
-5.5881e-07
0.000130875
-1.06361e-06
0.00013116
-1.49845e-06
0.00013152
-1.88055e-06
0.000131946
-2.22098e-06
0.000132432
-2.52734e-06
0.000132972
-2.80501e-06
0.000133562
-3.05819e-06
0.000134197
-3.29013e-06
0.000134874
-3.50343e-06
0.000135589
-3.70017e-06
0.000136339
-3.88206e-06
0.000137122
-4.05054e-06
0.000137935
-4.20676e-06
0.000138776
-4.35171e-06
0.000139643
-4.48623e-06
0.000140534
-4.61099e-06
0.000141447
-4.72658e-06
0.000142381
-4.83349e-06
0.000143333
-4.93212e-06
0.000144303
-5.02281e-06
0.000145288
-5.10584e-06
0.000146287
-5.18147e-06
0.0001473
-5.24988e-06
0.000148323
-5.31124e-06
0.000149357
-5.36569e-06
0.0001504
-5.41334e-06
0.00015145
-5.45431e-06
0.000152506
-5.48868e-06
0.000153567
-5.51652e-06
0.000154631
-5.53789e-06
0.000155698
-5.55285e-06
0.000156765
-5.56146e-06
0.000157833
-5.56374e-06
0.000158899
-5.55974e-06
0.000159962
-5.54946e-06
0.000161022
-5.53291e-06
0.000162076
-5.51009e-06
0.000163124
-5.48096e-06
0.000164165
-5.44549e-06
0.000165197
-5.40359e-06
0.000166218
-5.35518e-06
0.000167229
-5.30011e-06
0.000168227
-5.23825e-06
0.000169211
-5.16936e-06
0.000170179
-5.09322e-06
0.000171131
-5.00953e-06
0.000172065
-4.91793e-06
0.000172979
-4.81799e-06
0.000173872
-4.70924e-06
0.000174742
-4.59108e-06
0.000175587
-4.46286e-06
0.000176405
-4.32378e-06
0.000177195
-4.17292e-06
0.000177954
-4.00924e-06
0.00017868
-3.83147e-06
0.000179371
-3.63817e-06
0.000180023
-3.42763e-06
0.000180634
-3.19785e-06
0.0001812
-2.94648e-06
0.000181719
-2.67074e-06
0.000182187
-2.36732e-06
0.000182599
-2.0323e-06
0.000182953
-1.66099e-06
0.000183242
-1.24781e-06
0.000183464
-7.86035e-07
0.000183615
-2.67668e-07
0.00018369
3.16731e-07
0.000183688
9.7827e-07
0.000183609
1.73035e-06
0.000183457
2.58873e-06
0.000183242
3.5715e-06
0.000182984
4.69879e-06
0.000182715
5.99183e-06
0.000182489
7.47083e-06
0.000182384
9.15087e-06
0.000182512
1.10345e-05
0.000183018
1.30992e-05
0.000184062
1.52782e-05
0.000185768
1.74352e-05
1.93443e-05
0.000188102
0.000139824
-6.62577e-07
0.000140032
-1.27197e-06
0.000140331
-1.79646e-06
0.000140708
-2.25814e-06
0.000141157
-2.66964e-06
0.00014167
-3.03988e-06
0.000142241
-3.37537e-06
0.000142864
-3.68116e-06
0.000143536
-3.96119e-06
0.000144251
-4.21861e-06
0.000145007
-4.45594e-06
0.000145801
-4.67527e-06
0.000146629
-4.8783e-06
0.00014749
-5.06648e-06
0.00014838
-5.24099e-06
0.000149297
-5.40283e-06
0.000150239
-5.55284e-06
0.000151205
-5.69172e-06
0.000152193
-5.82007e-06
0.0001532
-5.93838e-06
0.000154225
-6.04706e-06
0.000155266
-6.14647e-06
0.000156322
-6.23689e-06
0.000157392
-6.31856e-06
0.000158473
-6.39168e-06
0.000159565
-6.45644e-06
0.000160665
-6.51297e-06
0.000161773
-6.56139e-06
0.000162887
-6.60182e-06
0.000164006
-6.63435e-06
0.000165128
-6.65906e-06
0.000166252
-6.67602e-06
0.000167376
-6.68529e-06
0.0001685
-6.68691e-06
0.000169622
-6.68094e-06
0.000170741
-6.66739e-06
0.000171855
-6.64628e-06
0.000172964
-6.6176e-06
0.000174065
-6.58133e-06
0.000175157
-6.53742e-06
0.00017624
-6.48579e-06
0.000177312
-6.42633e-06
0.000178372
-6.3589e-06
0.000179418
-6.28331e-06
0.000180448
-6.19935e-06
0.000181462
-6.10673e-06
0.000182459
-6.00512e-06
0.000183436
-5.89412e-06
0.000184391
-5.77325e-06
0.000185325
-5.64197e-06
0.000186234
-5.49962e-06
0.000187117
-5.34547e-06
0.000187973
-5.17864e-06
0.000188798
-4.99812e-06
0.000189592
-4.80275e-06
0.000190353
-4.59116e-06
0.000191077
-4.36181e-06
0.000191762
-4.11287e-06
0.000192407
-3.84223e-06
0.000193009
-3.54745e-06
0.000193564
-3.22565e-06
0.000194071
-2.87352e-06
0.000194526
-2.48717e-06
0.000194928
-2.06208e-06
0.000195273
-1.59296e-06
0.000195561
-1.07369e-06
0.000195791
-4.97178e-07
0.000195963
1.44616e-07
0.000196082
8.60489e-07
0.000196152
1.66029e-06
0.000196186
2.55497e-06
0.000196202
3.55586e-06
0.000196227
4.67389e-06
0.000196301
5.91825e-06
0.000196478
7.29414e-06
0.00019683
8.79946e-06
0.000197445
1.04199e-05
0.000198422
1.21223e-05
0.000199854
1.38469e-05
0.000201789
1.54997e-05
1.6954e-05
0.00020418
0.000149613
-7.69475e-07
0.00014983
-1.48863e-06
0.000150141
-2.10781e-06
0.000150537
-2.65382e-06
0.000151009
-3.14085e-06
0.000151548
-3.57905e-06
0.000152149
-3.97604e-06
0.000152806
-4.33777e-06
0.000153514
-4.66892e-06
0.000154269
-4.97318e-06
0.000155068
-5.25356e-06
0.000155905
-5.51254e-06
0.00015678
-5.75215e-06
0.000157688
-5.97408e-06
0.000158628
-6.17977e-06
0.000159596
-6.37039e-06
0.000160591
-6.54694e-06
0.00016161
-6.71026e-06
0.000162652
-6.86106e-06
0.000163714
-6.99992e-06
0.000164795
-7.12734e-06
0.000165893
-7.24373e-06
0.000167007
-7.34944e-06
0.000168134
-7.44476e-06
0.000169273
-7.52993e-06
0.000170422
-7.60516e-06
0.000171581
-7.67063e-06
0.000172747
-7.72649e-06
0.000173919
-7.77285e-06
0.000175095
-7.80985e-06
0.000176275
-7.83758e-06
0.000177456
-7.85613e-06
0.000178637
-7.86556e-06
0.000179817
-7.86596e-06
0.000180994
-7.85737e-06
0.000182167
-7.83982e-06
0.000183335
-7.81335e-06
0.000184497
-7.77794e-06
0.00018565
-7.73359e-06
0.000186793
-7.68023e-06
0.000187926
-7.6178e-06
0.000189047
-7.54619e-06
0.000190154
-7.46523e-06
0.000191246
-7.37475e-06
0.000192322
-7.27448e-06
0.00019338
-7.16414e-06
0.000194419
-7.04336e-06
0.000195437
-6.9117e-06
0.000196433
-6.76867e-06
0.000197406
-6.61367e-06
0.000198353
-6.44601e-06
0.000199273
-6.26489e-06
0.000200164
-6.0694e-06
0.000201025
-5.85846e-06
0.000201854
-5.63088e-06
0.000202649
-5.38525e-06
0.000203407
-5.11997e-06
0.000204128
-4.83322e-06
0.000204809
-4.52289e-06
0.000205449
-4.18659e-06
0.000206045
-3.82158e-06
0.000206597
-3.42474e-06
0.000207103
-2.9925e-06
0.000207562
-2.52084e-06
0.000207975
-2.00521e-06
0.000208342
-1.44053e-06
0.000208666
-8.2119e-07
0.000208953
-1.41078e-07
0.000209207
6.05994e-07
0.000209442
1.42588e-06
0.000209673
2.32464e-06
0.000209922
3.30749e-06
0.000210218
4.37787e-06
0.0002106
5.53625e-06
0.000211116
6.77849e-06
0.000211822
8.09371e-06
0.000212781
9.46183e-06
0.000214053
1.08509e-05
0.000215685
1.22149e-05
0.000217691
1.34937e-05
1.46177e-05
0.000220028
0.000160088
-8.7964e-07
0.000160313
-1.71347e-06
0.000160638
-2.43236e-06
0.000161051
-3.06742e-06
0.000161545
-3.63446e-06
0.000162111
-4.14474e-06
0.000162743
-4.60699e-06
0.000163433
-5.02809e-06
0.000164178
-5.41342e-06
0.000164973
-5.76732e-06
0.000165813
-6.09328e-06
0.000166695
-6.39418e-06
0.000167616
-6.6724e-06
0.000168573
-6.92993e-06
0.000169562
-7.16843e-06
0.000170582
-7.38928e-06
0.000171629
-7.59365e-06
0.000172702
-7.78253e-06
0.000173799
-7.95674e-06
0.000174917
-8.11698e-06
0.000176054
-8.26381e-06
0.000177209
-8.39775e-06
0.00017838
-8.51918e-06
0.000179564
-8.62846e-06
0.000180761
-8.72587e-06
0.000181969
-8.81166e-06
0.000183185
-8.88605e-06
0.000184409
-8.94919e-06
0.000185638
-9.00127e-06
0.000186872
-9.04241e-06
0.000188108
-9.07273e-06
0.000189345
-9.09234e-06
0.000190582
-9.10135e-06
0.000191817
-9.09983e-06
0.000193048
-9.08785e-06
0.000194275
-9.06546e-06
0.000195495
-9.0327e-06
0.000196707
-8.98959e-06
0.000197911
-8.9361e-06
0.000199104
-8.87222e-06
0.000200285
-8.79785e-06
0.000201452
-8.71289e-06
0.000202605
-8.6172e-06
0.000203742
-8.51057e-06
0.000204861
-8.39275e-06
0.000205961
-8.26343e-06
0.00020704
-8.12225e-06
0.000208098
-7.96875e-06
0.000209133
-7.80242e-06
0.000210142
-7.62265e-06
0.000211126
-7.42873e-06
0.000212082
-7.21985e-06
0.000213008
-6.99508e-06
0.000213903
-6.75338e-06
0.000214767
-6.49352e-06
0.000215596
-6.21416e-06
0.000216391
-5.91374e-06
0.000217148
-5.59054e-06
0.000217869
-5.2426e-06
0.00021855
-4.86774e-06
0.000219193
-4.4635e-06
0.000219796
-4.02719e-06
0.00022036
-3.55581e-06
0.000220885
-3.04612e-06
0.000221375
-2.49459e-06
0.000221833
-1.89751e-06
0.000222263
-1.25102e-06
0.000222674
-5.51237e-07
0.000223074
2.0555e-07
0.000223479
1.02185e-06
0.000223905
1.89922e-06
0.000224374
2.83817e-06
0.000224916
3.837e-06
0.000225561
4.89097e-06
0.000226349
5.99135e-06
0.000227318
7.12442e-06
0.00022851
8.27053e-06
0.000229958
9.40354e-06
0.000231682
1.0491e-05
0.00023368
1.14957e-05
1.238e-05
0.000235918
0.000171296
-9.93191e-07
0.000171529
-1.94638e-06
0.000171867
-2.76993e-06
0.000172298
-3.49871e-06
0.000172814
-4.1502e-06
0.000173407
-4.7367e-06
0.000174068
-5.26801e-06
0.000174792
-5.75192e-06
0.000175574
-6.19459e-06
0.000176408
-6.60096e-06
0.000177291
-6.97505e-06
0.000178217
-7.32017e-06
0.000179185
-7.63906e-06
0.000180189
-7.93402e-06
0.000181229
-8.20695e-06
0.0001823
-8.45946e-06
0.0001834
-8.69291e-06
0.000184527
-8.90843e-06
0.000185678
-9.10697e-06
0.000186851
-9.28934e-06
0.000188044
-9.45622e-06
0.000189256
-9.60818e-06
0.000190483
-9.74568e-06
0.000191725
-9.86914e-06
0.000192979
-9.97889e-06
0.000194243
-1.00752e-05
0.000195517
-1.01584e-05
0.000196797
-1.02286e-05
0.000198083
-1.0286e-05
0.000199373
-1.03308e-05
0.000200664
-1.03632e-05
0.000201956
-1.03833e-05
0.000203247
-1.03911e-05
0.000204535
-1.03869e-05
0.000205819
-1.03706e-05
0.000207097
-1.03424e-05
0.000208367
-1.03024e-05
0.000209629
-1.02505e-05
0.000210881
-1.01867e-05
0.000212121
-1.01111e-05
0.000213347
-1.00236e-05
0.000214559
-9.92406e-06
0.000215755
-9.81237e-06
0.000216934
-9.68834e-06
0.000218094
-9.55172e-06
0.000219234
-9.40223e-06
0.000220352
-9.23948e-06
0.000221447
-9.06305e-06
0.000222518
-8.87242e-06
0.000223563
-8.66701e-06
0.000224581
-8.44613e-06
0.000225571
-8.20899e-06
0.000226531
-7.95472e-06
0.000227461
-7.68232e-06
0.000228359
-7.39066e-06
0.000229224
-7.07849e-06
0.000230055
-6.74443e-06
0.000230852
-6.38693e-06
0.000231614
-6.00431e-06
0.000232342
-5.59474e-06
0.000233035
-5.15622e-06
0.000233695
-4.68664e-06
0.000234324
-4.18376e-06
0.000234923
-3.64527e-06
0.000235498
-3.06883e-06
0.000236053
-2.4522e-06
0.000236596
-1.79329e-06
0.000237135
-1.09035e-06
0.000237683
-3.4199e-07
0.000238254
4.521e-07
0.000238863
1.29025e-06
0.000239532
2.16956e-06
0.000240284
3.08541e-06
0.000241145
4.03067e-06
0.000242141
4.99537e-06
0.0002433
5.96628e-06
0.000244644
6.92692e-06
0.00024619
7.85772e-06
0.000247944
8.73689e-06
0.000249898
9.54203e-06
1.02528e-05
0.000252026
0.000183289
-1.11023e-06
0.00018353
-2.18726e-06
0.000183881
-3.12031e-06
0.00018433
-3.94737e-06
0.000184867
-4.68769e-06
0.000185486
-5.35453e-06
0.000186177
-5.95868e-06
0.000186934
-6.50887e-06
0.000187752
-7.01201e-06
0.000188625
-7.47369e-06
0.000189549
-7.89847e-06
0.00019052
-8.2901e-06
0.000191533
-8.65171e-06
0.000192586
-8.98591e-06
0.000193675
-9.29487e-06
0.000194797
-9.58044e-06
0.000195949
-9.84416e-06
0.000197129
-1.00873e-05
0.000198334
-1.03111e-05
0.000199562
-1.05163e-05
0.00020081
-1.07037e-05
0.000202077
-1.08741e-05
0.00020336
-1.10279e-05
0.000204658
-1.11657e-05
0.000205968
-1.12878e-05
0.000207288
-1.13945e-05
0.000208617
-1.14862e-05
0.000209953
-1.15631e-05
0.000211293
-1.16254e-05
0.000212637
-1.16734e-05
0.000213982
-1.17071e-05
0.000215327
-1.17268e-05
0.000216669
-1.17327e-05
0.000218008
-1.17248e-05
0.000219342
-1.17033e-05
0.000220669
-1.16682e-05
0.000221987
-1.16197e-05
0.000223296
-1.15579e-05
0.000224593
-1.14826e-05
0.000225877
-1.13941e-05
0.000227146
-1.12921e-05
0.0002284
-1.11768e-05
0.000229636
-1.10478e-05
0.000230854
-1.09051e-05
0.000232052
-1.07485e-05
0.000233228
-1.05777e-05
0.000234382
-1.03923e-05
0.000235512
-1.0192e-05
0.000236617
-9.9763e-06
0.000237695
-9.74463e-06
0.000238746
-9.49639e-06
0.000239769
-9.23086e-06
0.000240762
-8.94727e-06
0.000241725
-8.64473e-06
0.000242658
-8.32227e-06
0.000243559
-7.97883e-06
0.000244428
-7.61327e-06
0.000245266
-7.22433e-06
0.000246073
-6.8107e-06
0.00024685
-6.37101e-06
0.000247599
-5.90384e-06
0.00024832
-5.40774e-06
0.000249018
-4.88131e-06
0.000249697
-4.32325e-06
0.000250361
-3.73241e-06
0.000251017
-3.10791e-06
0.000251674
-2.44926e-06
0.00025234
-1.75647e-06
0.000253029
-1.03018e-06
0.000253753
-2.71573e-07
0.000254527
5.16488e-07
0.000255368
1.32907e-06
0.000256294
2.15998e-06
0.000257324
3.00166e-06
0.000258475
3.84474e-06
0.000259763
4.67807e-06
0.000261202
5.48891e-06
0.000262796
6.26346e-06
0.000264546
6.98757e-06
0.000266441
7.64793e-06
8.23374e-06
0.00026846
0.000196122
-1.23081e-06
0.000196371
-2.43594e-06
0.000196734
-3.48318e-06
0.0001972
-4.413e-06
0.000197759
-5.2464e-06
0.000198402
-5.9976e-06
0.000199122
-6.67833e-06
0.000199912
-7.29821e-06
0.000200766
-7.86493e-06
0.000201677
-8.38474e-06
0.000202642
-8.86273e-06
0.000203656
-9.30313e-06
0.000204714
-9.70946e-06
0.000205814
-1.00847e-05
0.000206951
-1.04312e-05
0.000208123
-1.07512e-05
0.000209326
-1.10463e-05
0.000210558
-1.13181e-05
0.000211815
-1.15678e-05
0.000213097
-1.17964e-05
0.000214399
-1.20049e-05
0.00021572
-1.21939e-05
0.000217057
-1.23642e-05
0.000218409
-1.25163e-05
0.000219773
-1.26506e-05
0.000221147
-1.27674e-05
0.000222529
-1.28673e-05
0.000223918
-1.29504e-05
0.000225311
-1.3017e-05
0.000226706
-1.30674e-05
0.000228102
-1.31017e-05
0.000229496
-1.31202e-05
0.000230888
-1.31231e-05
0.000232275
-1.31105e-05
0.000233655
-1.30826e-05
0.000235028
-1.30396e-05
0.00023639
-1.29814e-05
0.000237742
-1.29083e-05
0.000239081
-1.28204e-05
0.000240406
-1.27176e-05
0.000241714
-1.25999e-05
0.000243006
-1.24674e-05
0.000244279
-1.23199e-05
0.000245533
-1.21574e-05
0.000246765
-1.19797e-05
0.000247975
-1.17865e-05
0.000249161
-1.15777e-05
0.000250323
-1.13527e-05
0.000251459
-1.11114e-05
0.000252568
-1.08531e-05
0.00025365
-1.05774e-05
0.000254704
-1.02838e-05
0.000255729
-9.97146e-06
0.000256725
-9.63983e-06
0.000257691
-9.28812e-06
0.000258629
-8.9155e-06
0.000259537
-8.52116e-06
0.000260418
-8.1042e-06
0.000261272
-7.66377e-06
0.0002621
-7.19899e-06
0.000262906
-6.70906e-06
0.000263693
-6.19327e-06
0.000264463
-5.65103e-06
0.000265222
-5.08198e-06
0.000265976
-4.48602e-06
0.000266733
-3.86343e-06
0.000267499
-3.21496e-06
0.000268285
-2.54192e-06
0.000269101
-1.84628e-06
0.000269961
-1.13067e-06
0.000270876
-3.98198e-07
0.000271859
3.46481e-07
0.000272923
1.09696e-06
0.000274079
1.84556e-06
0.00027534
2.5845e-06
0.000276714
3.30498e-06
0.000278205
3.99774e-06
0.000279816
4.65339e-06
0.000281541
5.26299e-06
0.000283371
5.81873e-06
6.31506e-06
0.00028529
0.000209853
-1.3549e-06
0.000210109
-2.6922e-06
0.000210484
-3.85813e-06
0.000210967
-4.895e-06
0.000211546
-5.8256e-06
0.000212214
-6.66507e-06
0.000212962
-7.42599e-06
0.000213783
-8.11888e-06
0.000214671
-8.75221e-06
0.00021562
-9.33288e-06
0.000216625
-9.86654e-06
0.00021768
-1.03579e-05
0.000218783
-1.08109e-05
0.000219928
-1.12288e-05
0.000221112
-1.16143e-05
0.000222331
-1.19699e-05
0.000223584
-1.22975e-05
0.000224865
-1.25987e-05
0.000226174
-1.2875e-05
0.000227506
-1.31276e-05
0.00022886
-1.33574e-05
0.000230232
-1.35653e-05
0.000231621
-1.3752e-05
0.000233024
-1.39183e-05
0.00023444
-1.40645e-05
0.000235865
-1.41911e-05
0.000237297
-1.42986e-05
0.000238735
-1.43873e-05
0.000240177
-1.44574e-05
0.00024162
-1.45094e-05
0.000243063
-1.45434e-05
0.000244504
-1.45597e-05
0.000245941
-1.45585e-05
0.000247372
-1.45401e-05
0.000248795
-1.45046e-05
0.000250209
-1.44523e-05
0.000251612
-1.43833e-05
0.000253003
-1.42977e-05
0.000254379
-1.41956e-05
0.00025574
-1.40773e-05
0.000257084
-1.39426e-05
0.000258409
-1.37917e-05
0.000259715
-1.36246e-05
0.000261
-1.34411e-05
0.000262263
-1.32413e-05
0.000263502
-1.30249e-05
0.000264717
-1.27918e-05
0.000265907
-1.25417e-05
0.000267071
-1.22744e-05
0.000268209
-1.19896e-05
0.000269319
-1.16868e-05
0.000270402
-1.13656e-05
0.000271457
-1.10257e-05
0.000272485
-1.06664e-05
0.000273485
-1.02875e-05
0.000274458
-9.88823e-06
0.000275406
-9.46825e-06
0.00027633
-9.02707e-06
0.000277231
-8.56428e-06
0.000278112
-8.07955e-06
0.000278977
-7.57269e-06
0.000279828
-7.04365e-06
0.00028067
-6.49258e-06
0.000281509
-5.91992e-06
0.00028235
-5.3264e-06
0.0002832
-4.71317e-06
0.000284068
-4.08181e-06
0.000284961
-3.43446e-06
0.000285889
-2.77378e-06
0.000286862
-2.10302e-06
0.00028789
-1.42597e-06
0.000288984
-7.4666e-07
0.000290151
-6.97217e-08
0.000291399
5.98441e-07
0.000292733
1.25122e-06
0.000294156
1.88153e-06
0.000295672
2.48297e-06
0.000297276
3.04937e-06
0.000298965
3.57511e-06
0.000300728
4.05574e-06
4.48861e-06
0.000302555
0.000224545
-1.48242e-06
0.000224809
-2.95569e-06
0.000225196
-4.24453e-06
0.000225693
-5.39257e-06
0.000226292
-6.42428e-06
0.000226983
-7.35572e-06
0.000227758
-8.20031e-06
0.000228609
-8.96939e-06
0.00022953
-9.67222e-06
0.000230514
-1.03164e-05
0.000231557
-1.0908e-05
0.000232652
-1.14524e-05
0.000233796
-1.19538e-05
0.000234984
-1.2416e-05
0.000236213
-1.28419e-05
0.000237478
-1.32342e-05
0.000238777
-1.35951e-05
0.000240106
-1.39265e-05
0.000241462
-1.42299e-05
0.000242842
-1.45067e-05
0.000244244
-1.4758e-05
0.000245665
-1.49848e-05
0.000247102
-1.51879e-05
0.000248553
-1.5368e-05
0.000250016
-1.55258e-05
0.000251488
-1.56616e-05
0.000252967
-1.57761e-05
0.00025445
-1.58696e-05
0.000255937
-1.59424e-05
0.000257424
-1.5995e-05
0.000258909
-1.60276e-05
0.000260391
-1.60406e-05
0.000261868
-1.60342e-05
0.000263338
-1.60086e-05
0.000264799
-1.59643e-05
0.00026625
-1.59014e-05
0.000267688
-1.582e-05
0.000269112
-1.57206e-05
0.000270521
-1.56032e-05
0.000271913
-1.54679e-05
0.000273287
-1.53151e-05
0.000274641
-1.51446e-05
0.000275974
-1.49567e-05
0.000277285
-1.47513e-05
0.000278574
-1.45285e-05
0.000279838
-1.42883e-05
0.000281078
-1.40305e-05
0.000282293
-1.3755e-05
0.000283481
-1.34618e-05
0.000284643
-1.31506e-05
0.000285779
-1.28213e-05
0.000286888
-1.24737e-05
0.000287971
-1.21075e-05
0.000289028
-1.17226e-05
0.00029006
-1.13187e-05
0.000291069
-1.08957e-05
0.000292055
-1.04535e-05
0.000293021
-9.99202e-06
0.000293968
-9.51131e-06
0.000294901
-9.01156e-06
0.000295822
-8.49311e-06
0.000296736
-7.95648e-06
0.000297647
-7.40243e-06
0.00029856
-6.83198e-06
0.00029948
-6.24648e-06
0.000300415
-5.6476e-06
0.000301372
-5.03742e-06
0.000302356
-4.41842e-06
0.000303377
-3.79351e-06
0.00030444
-3.16599e-06
0.000305555
-2.53955e-06
0.000306727
-1.91816e-06
0.000307964
-1.30597e-06
0.000309269
-7.06775e-07
0.000310646
-1.25005e-07
0.000312094
4.34253e-07
0.000313611
9.66219e-07
0.000315195
1.46656e-06
0.000316839
1.93155e-06
0.000318536
2.35889e-06
2.7475e-06
0.000320278
0.000240266
-1.61319e-06
0.000240537
-3.22594e-06
0.000240934
-4.64156e-06
0.000241446
-5.90459e-06
0.000242063
-7.04106e-06
0.000242776
-8.06795e-06
0.000243576
-8.99944e-06
0.000244455
-9.8477e-06
0.000245406
-1.06227e-05
0.000246423
-1.13328e-05
0.0002475
-1.19846e-05
0.000248633
-1.25839e-05
0.000249815
-1.31354e-05
0.000251044
-1.36432e-05
0.000252314
-1.41107e-05
0.000253621
-1.45407e-05
0.000254963
-1.49357e-05
0.000256335
-1.52977e-05
0.000257735
-1.56286e-05
0.00025916
-1.59299e-05
0.000260606
-1.62027e-05
0.00026207
-1.64482e-05
0.000263551
-1.66673e-05
0.000265045
-1.68608e-05
0.000266551
-1.70295e-05
0.000268064
-1.71739e-05
0.000269584
-1.72945e-05
0.000271108
-1.73918e-05
0.000272633
-1.74663e-05
0.000274158
-1.75184e-05
0.000275681
-1.75485e-05
0.000277198
-1.75568e-05
0.00027871
-1.75439e-05
0.000280212
-1.751e-05
0.000281705
-1.74554e-05
0.000283185
-1.73805e-05
0.000284652
-1.72855e-05
0.000286104
-1.71709e-05
0.000287539
-1.70367e-05
0.000288956
-1.68834e-05
0.000290353
-1.67111e-05
0.00029173
-1.652e-05
0.000293085
-1.63103e-05
0.000294417
-1.60822e-05
0.000295726
-1.58358e-05
0.00029701