/*--------------------------------*- C++ -*----------------------------------*\
| =========                 |                                                 |
| \\      /  F ield         | OpenFOAM: The Open Source CFD Toolbox           |
|  \\    /   O peration     | Version:  2106                                  |
|   \\  /    A nd           | Website:  www.openfoam.com                      |
|    \\/     M anipulation  |                                                 |
\*---------------------------------------------------------------------------*/
FoamFile
{
    version     2.0;
    format      ascii;
    arch        "LSB;label=32;scalar=64";
    class       volScalarField;
    location    "4";
    object      T;
}
// * * * * * * * * * * * * * * * * * * * * * * * * * * * * * * * * * * * * * //

dimensions      [0 0 0 1 0 0 0];

internalField   nonuniform List<scalar> 
12013
(
300.003
300.008
300.014
300.02
300.027
300.033
300.04
300.048
300.055
300.063
300.072
300.081
300.09
300.1
300.11
300.12
300.131
300.143
300.155
300.167
300.18
300.194
300.208
300.223
300.238
300.254
300.27
300.287
300.305
300.323
300.342
300.362
300.382
300.403
300.425
300.448
300.471
300.495
300.52
300.545
300.572
300.599
300.627
300.656
300.686
300.716
300.748
300.78
300.814
300.848
300.883
300.92
300.957
300.996
301.036
301.076
301.118
301.162
301.206
301.252
301.299
301.348
301.398
301.449
301.503
301.558
301.615
301.674
301.736
301.799
301.866
301.935
302.007
302.083
302.163
302.249
302.34
302.439
302.548
302.672
302.819
300.003
300.008
300.014
300.02
300.027
300.033
300.04
300.048
300.055
300.063
300.072
300.081
300.09
300.1
300.11
300.12
300.131
300.143
300.155
300.167
300.18
300.194
300.208
300.223
300.238
300.254
300.27
300.287
300.305
300.323
300.342
300.362
300.382
300.403
300.425
300.448
300.471
300.495
300.52
300.545
300.572
300.599
300.627
300.656
300.686
300.716
300.748
300.78
300.814
300.848
300.883
300.92
300.957
300.996
301.035
301.076
301.118
301.161
301.206
301.251
301.299
301.347
301.397
301.449
301.502
301.557
301.614
301.673
301.734
301.798
301.864
301.933
302.005
302.08
302.16
302.244
302.334
302.43
302.535
302.65
302.777
300.003
300.008
300.014
300.02
300.027
300.033
300.04
300.048
300.055
300.063
300.072
300.081
300.09
300.1
300.11
300.12
300.131
300.143
300.155
300.167
300.18
300.194
300.208
300.223
300.238
300.254
300.27
300.287
300.305
300.323
300.342
300.362
300.382
300.403
300.425
300.448
300.471
300.495
300.52
300.545
300.572
300.599
300.627
300.656
300.685
300.716
300.747
300.78
300.813
300.848
300.883
300.919
300.957
300.995
301.035
301.075
301.117
301.16
301.205
301.25
301.297
301.346
301.396
301.447
301.501
301.555
301.612
301.671
301.732
301.795
301.86
301.928
301.999
302.074
302.152
302.234
302.321
302.413
302.511
302.615
302.723
300.003
300.008
300.014
300.02
300.027
300.033
300.04
300.048
300.055
300.063
300.072
300.081
300.09
300.1
300.11
300.12
300.131
300.143
300.155
300.167
300.18
300.194
300.208
300.222
300.238
300.254
300.27
300.287
300.305
300.323
300.342
300.362
300.382
300.403
300.425
300.447
300.471
300.495
300.519
300.545
300.571
300.598
300.626
300.655
300.685
300.716
300.747
300.779
300.813
300.847
300.882
300.919
300.956
300.994
301.034
301.074
301.116
301.159
301.203
301.249
301.296
301.344
301.394
301.445
301.498
301.552
301.609
301.667
301.727
301.789
301.854
301.921
301.991
302.064
302.139
302.219
302.302
302.388
302.478
302.571
302.665
300.003
300.008
300.014
300.02
300.027
300.033
300.04
300.048
300.055
300.063
300.072
300.081
300.09
300.1
300.11
300.12
300.131
300.143
300.155
300.167
300.18
300.194
300.208
300.222
300.238
300.253
300.27
300.287
300.305
300.323
300.342
300.362
300.382
300.403
300.425
300.447
300.47
300.494
300.519
300.545
300.571
300.598
300.626
300.655
300.684
300.715
300.746
300.779
300.812
300.846
300.881
300.918
300.955
300.993
301.032
301.073
301.115
301.157
301.201
301.247
301.293
301.341
301.391
301.441
301.494
301.548
301.604
301.661
301.72
301.782
301.845
301.911
301.979
302.049
302.122
302.198
302.276
302.357
302.44
302.523
302.606
300.003
300.008
300.014
300.02
300.027
300.033
300.04
300.048
300.055
300.063
300.072
300.081
300.09
300.099
300.11
300.12
300.131
300.143
300.154
300.167
300.18
300.194
300.208
300.222
300.238
300.253
300.27
300.287
300.304
300.323
300.342
300.361
300.382
300.403
300.424
300.447
300.47
300.494
300.519
300.544
300.57
300.597
300.625
300.654
300.684
300.714
300.745
300.778
300.811
300.845
300.88
300.916
300.953
300.991
301.031
301.071
301.112
301.155
301.199
301.244
301.29
301.337
301.386
301.437
301.488
301.542
301.597
301.653
301.712
301.772
301.834
301.897
301.963
302.031
302.101
302.173
302.246
302.321
302.396
302.472
302.546
300.003
300.008
300.014
300.02
300.027
300.033
300.04
300.048
300.055
300.063
300.072
300.081
300.09
300.099
300.109
300.12
300.131
300.142
300.154
300.167
300.18
300.193
300.207
300.222
300.237
300.253
300.27
300.287
300.304
300.323
300.341
300.361
300.381
300.402
300.424
300.446
300.47
300.493
300.518
300.544
300.57
300.597
300.625
300.653
300.683
300.713
300.744
300.776
300.809
300.843
300.878
300.914
300.951
300.989
301.028
301.068
301.109
301.151
301.195
301.239
301.285
301.332
301.381
301.43
301.481
301.534
301.588
301.643
301.7
301.759
301.819
301.881
301.944
302.009
302.075
302.143
302.211
302.28
302.35
302.419
302.486
300.003
300.008
300.014
300.02
300.027
300.033
300.04
300.048
300.055
300.063
300.072
300.081
300.09
300.099
300.109
300.12
300.131
300.142
300.154
300.167
300.18
300.193
300.207
300.222
300.237
300.253
300.269
300.286
300.304
300.322
300.341
300.361
300.381
300.402
300.424
300.446
300.469
300.493
300.517
300.543
300.569
300.596
300.623
300.652
300.681
300.712
300.743
300.775
300.808
300.841
300.876
300.912
300.949
300.986
301.025
301.065
301.105
301.147
301.19
301.234
301.279
301.326
301.374
301.422
301.473
301.524
301.577
301.631
301.686
301.743
301.801
301.86
301.921
301.983
302.045
302.109
302.173
302.237
302.301
302.364
302.425
300.003
300.008
300.014
300.02
300.027
300.033
300.04
300.048
300.055
300.063
300.072
300.08
300.09
300.099
300.109
300.12
300.131
300.142
300.154
300.167
300.18
300.193
300.207
300.222
300.237
300.253
300.269
300.286
300.304
300.322
300.341
300.36
300.38
300.401
300.423
300.445
300.468
300.492
300.516
300.542
300.568
300.595
300.622
300.651
300.68
300.71
300.741
300.773
300.805
300.839
300.873
300.909
300.945
300.983
301.021
301.06
301.101
301.142
301.184
301.228
301.272
301.318
301.365
301.413
301.462
301.512
301.563
301.616
301.67
301.724
301.78
301.837
301.894
301.953
302.012
302.071
302.131
302.19
302.249
302.307
302.364
300.003
300.008
300.014
300.02
300.027
300.033
300.04
300.048
300.055
300.063
300.072
300.08
300.09
300.099
300.109
300.12
300.131
300.142
300.154
300.166
300.179
300.193
300.207
300.221
300.236
300.252
300.269
300.285
300.303
300.321
300.34
300.36
300.38
300.4
300.422
300.444
300.467
300.491
300.515
300.54
300.566
300.593
300.62
300.649
300.678
300.708
300.738
300.77
300.802
300.836
300.87
300.905
300.941
300.978
301.016
301.055
301.095
301.135
301.177
301.22
301.264
301.308
301.354
301.401
301.449
301.498
301.547
301.598
301.65
301.703
301.756
301.81
301.865
301.92
301.975
302.031
302.086
302.142
302.196
302.25
302.303
300.003
300.008
300.014
300.02
300.027
300.033
300.04
300.047
300.055
300.063
300.071
300.08
300.089
300.099
300.109
300.119
300.13
300.142
300.154
300.166
300.179
300.192
300.206
300.221
300.236
300.252
300.268
300.285
300.302
300.321
300.339
300.359
300.379
300.4
300.421
300.443
300.466
300.489
300.514
300.539
300.565
300.591
300.618
300.646
300.675
300.705
300.736
300.767
300.799
300.832
300.866
300.901
300.936
300.973
301.01
301.048
301.087
301.128
301.169
301.21
301.253
301.297
301.342
301.387
301.434
301.481
301.529
301.578
301.628
301.678
301.729
301.78
301.832
301.884
301.936
301.988
302.04
302.091
302.142
302.191
302.24
300.003
300.008
300.014
300.02
300.027
300.033
300.04
300.047
300.055
300.063
300.071
300.08
300.089
300.099
300.109
300.119
300.13
300.142
300.153
300.166
300.179
300.192
300.206
300.22
300.236
300.251
300.267
300.284
300.302
300.32
300.338
300.358
300.378
300.398
300.42
300.442
300.464
300.488
300.512
300.537
300.562
300.589
300.616
300.644
300.672
300.702
300.732
300.763
300.795
300.827
300.861
300.895
300.93
300.966
301.003
301.04
301.079
301.118
301.158
301.199
301.241
301.284
301.327
301.371
301.416
301.462
301.508
301.555
301.602
301.65
301.699
301.747
301.796
301.845
301.894
301.942
301.991
302.038
302.085
302.132
302.177
300.003
300.008
300.014
300.02
300.026
300.033
300.04
300.047
300.055
300.063
300.071
300.08
300.089
300.099
300.109
300.119
300.13
300.141
300.153
300.165
300.178
300.192
300.205
300.22
300.235
300.25
300.267
300.283
300.301
300.319
300.337
300.357
300.376
300.397
300.418
300.44
300.463
300.486
300.51
300.535
300.56
300.586
300.613
300.64
300.669
300.698
300.728
300.758
300.79
300.822
300.855
300.889
300.923
300.958
300.994
301.031
301.069
301.107
301.147
301.186
301.227
301.268
301.31
301.353
301.396
301.44
301.484
301.529
301.574
301.62
301.666
301.712
301.757
301.803
301.849
301.895
301.94
301.984
302.028
302.071
302.113
300.003
300.008
300.014
300.02
300.026
300.033
300.04
300.047
300.055
300.063
300.071
300.08
300.089
300.098
300.108
300.119
300.129
300.141
300.153
300.165
300.178
300.191
300.205
300.219
300.234
300.25
300.266
300.282
300.3
300.318
300.336
300.355
300.375
300.395
300.416
300.438
300.46
300.484
300.507
300.532
300.557
300.583
300.609
300.637
300.665
300.693
300.723
300.753
300.784
300.816
300.848
300.881
300.915
300.949
300.985
301.021
301.057
301.095
301.133
301.172
301.211
301.251
301.291
301.332
301.374
301.416
301.458
301.501
301.544
301.587
301.63
301.673
301.717
301.76
301.802
301.845
301.887
301.928
301.969
302.01
302.049
300.003
300.008
300.014
300.02
300.026
300.033
300.04
300.047
300.055
300.063
300.071
300.079
300.089
300.098
300.108
300.118
300.129
300.14
300.152
300.164
300.177
300.19
300.204
300.218
300.233
300.249
300.265
300.281
300.298
300.316
300.334
300.353
300.373
300.393
300.414
300.436
300.458
300.481
300.504
300.528
300.553
300.579
300.605
300.632
300.66
300.688
300.717
300.747
300.777
300.808
300.84
300.872
300.905
300.939
300.973
301.008
301.044
301.08
301.117
301.155
301.193
301.231
301.27
301.309
301.349
301.389
301.429
301.47
301.511
301.551
301.592
301.633
301.673
301.714
301.754
301.793
301.833
301.871
301.91
301.947
301.984
300.003
300.008
300.014
300.02
300.026
300.033
300.04
300.047
300.054
300.062
300.071
300.079
300.088
300.098
300.108
300.118
300.129
300.14
300.151
300.164
300.176
300.189
300.203
300.217
300.232
300.247
300.263
300.28
300.297
300.314
300.333
300.351
300.371
300.391
300.412
300.433
300.455
300.477
300.501
300.525
300.549
300.574
300.6
300.627
300.654
300.682
300.71
300.739
300.769
300.799
300.83
300.862
300.894
300.927
300.961
300.995
301.029
301.064
301.1
301.136
301.172
301.209
301.246
301.284
301.322
301.36
301.398
301.437
301.475
301.513
301.552
301.59
301.628
301.666
301.703
301.74
301.777
301.813
301.849
301.884
301.918
300.003
300.008
300.014
300.02
300.026
300.033
300.04
300.047
300.054
300.062
300.07
300.079
300.088
300.097
300.107
300.117
300.128
300.139
300.151
300.163
300.175
300.188
300.202
300.216
300.231
300.246
300.262
300.278
300.295
300.312
300.331
300.349
300.368
300.388
300.409
300.43
300.451
300.474
300.497
300.52
300.544
300.569
300.594
300.62
300.647
300.674
300.702
300.731
300.76
300.789
300.82
300.85
300.882
300.914
300.946
300.979
301.012
301.046
301.08
301.115
301.15
301.185
301.221
301.256
301.292
301.328
301.365
301.401
301.437
301.473
301.509
301.545
301.581
301.616
301.651
301.686
301.72
301.754
301.787
301.82
301.852
300.003
300.008
300.014
300.02
300.026
300.033
300.039
300.046
300.054
300.062
300.07
300.078
300.087
300.097
300.106
300.117
300.127
300.138
300.15
300.162
300.174
300.187
300.201
300.215
300.229
300.244
300.26
300.276
300.293
300.31
300.328
300.346
300.365
300.385
300.405
300.426
300.447
300.469
300.492
300.515
300.539
300.563
300.588
300.613
300.639
300.666
300.693
300.721
300.749
300.778
300.807
300.837
300.868
300.898
300.93
300.961
300.994
301.026
301.059
301.092
301.125
301.159
301.193
301.227
301.261
301.295
301.329
301.363
301.397
301.431
301.465
301.499
301.532
301.565
301.598
301.63
301.662
301.694
301.725
301.755
301.785
300.003
300.008
300.014
300.02
300.026
300.032
300.039
300.046
300.054
300.061
300.069
300.078
300.087
300.096
300.106
300.116
300.126
300.137
300.149
300.161
300.173
300.186
300.199
300.213
300.228
300.243
300.258
300.274
300.29
300.307
300.325
300.343
300.362
300.381
300.401
300.422
300.443
300.464
300.486
300.509
300.532
300.556
300.58
300.605
300.631
300.657
300.683
300.71
300.737
300.765
300.794
300.823
300.852
300.882
300.912
300.942
300.973
301.004
301.035
301.067
301.098
301.13
301.162
301.195
301.227
301.259
301.291
301.323
301.355
301.387
301.419
301.45
301.481
301.512
301.543
301.573
301.603
301.632
301.661
301.69
301.718
300.003
300.008
300.014
300.02
300.026
300.032
300.039
300.046
300.053
300.061
300.069
300.077
300.086
300.095
300.105
300.115
300.125
300.136
300.148
300.159
300.172
300.184
300.198
300.211
300.226
300.24
300.256
300.271
300.288
300.304
300.322
300.34
300.358
300.377
300.396
300.417
300.437
300.458
300.48
300.502
300.525
300.548
300.572
300.596
300.621
300.646
300.671
300.698
300.724
300.751
300.779
300.806
300.835
300.863
300.892
300.921
300.95
300.98
301.01
301.04
301.07
301.1
301.13
301.161
301.191
301.221
301.252
301.282
301.312
301.342
301.371
301.401
301.43
301.459
301.487
301.515
301.543
301.571
301.598
301.624
301.65
300.003
300.008
300.014
300.019
300.025
300.032
300.039
300.046
300.053
300.06
300.068
300.077
300.086
300.095
300.104
300.114
300.124
300.135
300.146
300.158
300.17
300.183
300.196
300.209
300.223
300.238
300.253
300.268
300.284
300.301
300.318
300.335
300.354
300.372
300.391
300.411
300.431
300.452
300.473
300.494
300.516
300.539
300.562
300.586
300.609
300.634
300.659
300.684
300.71
300.735
300.762
300.788
300.815
300.843
300.87
300.898
300.926
300.954
300.982
301.011
301.039
301.068
301.096
301.125
301.153
301.182
301.21
301.238
301.267
301.294
301.322
301.35
301.377
301.404
301.43
301.457
301.482
301.508
301.533
301.558
301.582
300.003
300.008
300.013
300.019
300.025
300.032
300.038
300.045
300.052
300.06
300.068
300.076
300.085
300.094
300.103
300.113
300.123
300.134
300.145
300.156
300.168
300.181
300.193
300.207
300.221
300.235
300.25
300.265
300.281
300.297
300.313
300.331
300.348
300.367
300.385
300.404
300.424
300.444
300.465
300.486
300.507
300.529
300.551
300.574
300.597
300.621
300.644
300.669
300.693
300.718
300.743
300.769
300.795
300.821
300.847
300.873
300.9
300.926
300.953
300.98
301.007
301.034
301.06
301.087
301.114
301.141
301.167
301.194
301.22
301.246
301.272
301.297
301.323
301.348
301.373
301.397
301.421
301.445
301.468
301.492
301.514
300.003
300.008
300.013
300.019
300.025
300.031
300.038
300.045
300.052
300.059
300.067
300.075
300.084
300.093
300.102
300.112
300.122
300.132
300.143
300.154
300.166
300.178
300.191
300.204
300.218
300.232
300.246
300.261
300.276
300.292
300.309
300.325
300.343
300.36
300.378
300.397
300.416
300.436
300.455
300.476
300.497
300.518
300.539
300.561
300.583
300.606
300.629
300.652
300.676
300.699
300.724
300.748
300.772
300.797
300.822
300.847
300.872
300.897
300.922
300.947
300.973
300.998
301.023
301.048
301.073
301.098
301.123
301.148
301.172
301.196
301.22
301.244
301.268
301.291
301.314
301.337
301.359
301.382
301.403
301.425
301.446
300.003
300.008
300.013
300.019
300.025
300.031
300.037
300.044
300.051
300.059
300.066
300.074
300.083
300.091
300.101
300.11
300.12
300.13
300.141
300.152
300.164
300.176
300.188
300.201
300.214
300.228
300.242
300.257
300.272
300.287
300.303
300.319
300.336
300.353
300.371
300.389
300.407
300.426
300.445
300.465
300.485
300.505
300.526
300.547
300.568
300.59
300.612
300.634
300.657
300.679
300.702
300.725
300.748
300.772
300.795
300.819
300.842
300.866
300.89
300.913
300.937
300.961
300.984
301.008
301.031
301.054
301.078
301.1
301.123
301.146
301.168
301.19
301.212
301.234
301.255
301.277
301.297
301.318
301.338
301.358
301.378
300.003
300.008
300.013
300.019
300.024
300.03
300.037
300.043
300.05
300.058
300.065
300.073
300.081
300.09
300.099
300.108
300.118
300.128
300.139
300.15
300.161
300.173
300.185
300.197
300.21
300.224
300.237
300.252
300.266
300.281
300.297
300.313
300.329
300.345
300.362
300.38
300.398
300.416
300.434
300.453
300.472
300.492
300.512
300.532
300.552
300.573
300.594
300.615
300.636
300.658
300.679
300.701
300.723
300.745
300.767
300.789
300.811
300.833
300.856
300.878
300.9
300.922
300.944
300.966
300.988
301.01
301.031
301.052
301.074
301.095
301.115
301.136
301.156
301.176
301.196
301.216
301.235
301.254
301.273
301.292
301.31
300.002
300.008
300.013
300.018
300.024
300.03
300.036
300.043
300.05
300.057
300.064
300.072
300.08
300.089
300.097
300.106
300.116
300.126
300.136
300.147
300.158
300.169
300.181
300.193
300.206
300.219
300.232
300.246
300.26
300.275
300.29
300.305
300.321
300.337
300.353
300.37
300.387
300.405
300.422
300.44
300.459
300.477
300.496
300.515
300.535
300.554
300.574
300.594
300.614
300.634
300.655
300.675
300.696
300.717
300.737
300.758
300.779
300.8
300.821
300.841
300.862
300.883
300.903
300.923
300.944
300.964
300.984
301.004
301.023
301.043
301.062
301.081
301.1
301.119
301.137
301.155
301.173
301.191
301.208
301.225
301.242
300.002
300.007
300.013
300.018
300.024
300.029
300.036
300.042
300.049
300.056
300.063
300.071
300.079
300.087
300.095
300.104
300.114
300.123
300.133
300.144
300.154
300.166
300.177
300.189
300.201
300.214
300.227
300.24
300.254
300.268
300.282
300.297
300.312
300.327
300.343
300.359
300.376
300.392
300.409
300.426
300.444
300.462
300.48
300.498
300.516
300.535
300.553
300.572
300.591
300.61
300.629
300.649
300.668
300.687
300.707
300.726
300.746
300.765
300.784
300.804
300.823
300.842
300.861
300.88
300.899
300.917
300.936
300.954
300.973
300.991
301.008
301.026
301.044
301.061
301.078
301.095
301.111
301.128
301.144
301.16
301.175
300.002
300.007
300.012
300.018
300.023
300.029
300.035
300.041
300.048
300.055
300.062
300.069
300.077
300.085
300.093
300.102
300.111
300.12
300.13
300.14
300.151
300.161
300.173
300.184
300.196
300.208
300.22
300.233
300.247
300.26
300.274
300.288
300.302
300.317
300.332
300.348
300.363
300.379
300.395
300.412
300.428
300.445
300.462
300.479
300.496
300.514
300.531
300.549
300.567
300.585
300.603
300.621
300.639
300.657
300.675
300.693
300.711
300.729
300.747
300.765
300.783
300.801
300.818
300.836
300.853
300.871
300.888
300.905
300.922
300.938
300.955
300.971
300.987
301.003
301.019
301.034
301.05
301.065
301.08
301.094
301.109
300.002
300.007
300.012
300.017
300.023
300.028
300.034
300.04
300.047
300.053
300.06
300.067
300.075
300.083
300.091
300.099
300.108
300.117
300.127
300.136
300.146
300.157
300.168
300.179
300.19
300.202
300.214
300.226
300.239
300.252
300.265
300.278
300.292
300.306
300.321
300.335
300.35
300.365
300.38
300.396
300.411
300.427
300.443
300.459
300.476
300.492
300.509
300.525
300.542
300.559
300.575
300.592
300.609
300.626
300.643
300.66
300.676
300.693
300.71
300.726
300.743
300.759
300.776
300.792
300.808
300.824
300.84
300.855
300.871
300.886
300.901
300.916
300.931
300.946
300.96
300.975
300.989
301.003
301.016
301.03
301.043
300.002
300.007
300.012
300.017
300.022
300.027
300.033
300.039
300.045
300.052
300.059
300.066
300.073
300.08
300.088
300.097
300.105
300.114
300.123
300.132
300.142
300.152
300.162
300.173
300.184
300.195
300.207
300.218
300.23
300.243
300.255
300.268
300.281
300.295
300.308
300.322
300.336
300.35
300.365
300.379
300.394
300.409
300.424
300.439
300.454
300.47
300.485
300.5
300.516
300.532
300.547
300.563
300.578
300.594
300.61
300.625
300.641
300.656
300.672
300.687
300.702
300.717
300.732
300.747
300.762
300.777
300.792
300.806
300.82
300.834
300.848
300.862
300.876
300.889
300.903
300.916
300.929
300.942
300.954
300.967
300.979
300.002
300.007
300.011
300.016
300.021
300.027
300.032
300.038
300.044
300.05
300.057
300.064
300.071
300.078
300.086
300.093
300.102
300.11
300.119
300.128
300.137
300.147
300.157
300.167
300.177
300.188
300.199
300.21
300.222
300.233
300.245
300.257
300.27
300.282
300.295
300.308
300.321
300.335
300.348
300.362
300.376
300.39
300.404
300.418
300.432
300.446
300.461
300.475
300.49
300.504
300.519
300.533
300.548
300.562
300.576
300.591
300.605
300.619
300.634
300.648
300.662
300.676
300.69
300.703
300.717
300.731
300.744
300.757
300.77
300.783
300.796
300.809
300.821
300.834
300.846
300.858
300.87
300.882
300.893
300.905
300.916
300.002
300.006
300.011
300.016
300.021
300.026
300.031
300.037
300.043
300.049
300.055
300.061
300.068
300.075
300.083
300.09
300.098
300.106
300.115
300.123
300.132
300.141
300.151
300.16
300.17
300.18
300.191
300.201
300.212
300.223
300.235
300.246
300.258
300.27
300.282
300.294
300.306
300.319
300.332
300.344
300.357
300.37
300.383
300.397
300.41
300.423
300.436
300.45
300.463
300.477
300.49
300.503
300.517
300.53
300.543
300.557
300.57
300.583
300.596
300.609
300.622
300.635
300.647
300.66
300.672
300.685
300.697
300.709
300.721
300.733
300.745
300.757
300.768
300.779
300.791
300.802
300.813
300.823
300.834
300.844
300.855
300.002
300.006
300.011
300.015
300.02
300.025
300.03
300.035
300.041
300.047
300.053
300.059
300.066
300.073
300.08
300.087
300.094
300.102
300.11
300.118
300.127
300.135
300.144
300.154
300.163
300.173
300.182
300.193
300.203
300.213
300.224
300.235
300.246
300.257
300.268
300.28
300.291
300.303
300.315
300.327
300.339
300.351
300.363
300.375
300.387
300.4
300.412
300.424
300.437
300.449
300.461
300.474
300.486
300.498
300.51
300.523
300.535
300.547
300.559
300.571
300.583
300.594
300.606
300.618
300.629
300.64
300.652
300.663
300.674
300.685
300.695
300.706
300.716
300.727
300.737
300.747
300.757
300.767
300.777
300.786
300.796
300.002
300.006
300.01
300.015
300.019
300.024
300.029
300.034
300.039
300.045
300.051
300.057
300.063
300.07
300.076
300.083
300.09
300.098
300.105
300.113
300.121
300.13
300.138
300.147
300.156
300.165
300.174
300.183
300.193
300.203
300.213
300.223
300.233
300.244
300.254
300.265
300.276
300.287
300.298
300.309
300.32
300.331
300.342
300.354
300.365
300.376
300.388
300.399
300.411
300.422
300.433
300.445
300.456
300.467
300.479
300.49
300.501
300.512
300.523
300.534
300.545
300.555
300.566
300.577
300.587
300.597
300.608
300.618
300.628
300.638
300.648
300.657
300.667
300.676
300.686
300.695
300.704
300.713
300.722
300.731
300.739
300.002
300.006
300.01
300.014
300.018
300.023
300.028
300.033
300.038
300.043
300.049
300.055
300.061
300.067
300.073
300.08
300.086
300.093
300.101
300.108
300.116
300.124
300.132
300.14
300.148
300.157
300.165
300.174
300.183
300.193
300.202
300.212
300.221
300.231
300.241
300.251
300.261
300.271
300.281
300.291
300.302
300.312
300.322
300.333
300.343
300.354
300.364
300.375
300.385
300.396
300.406
300.417
300.427
300.437
300.448
300.458
300.468
300.478
300.488
300.498
300.508
300.518
300.528
300.538
300.547
300.557
300.566
300.575
300.585
300.594
300.603
300.611
300.62
300.629
300.637
300.646
300.654
300.662
300.67
300.678
300.686
300.002
300.006
300.009
300.013
300.018
300.022
300.027
300.031
300.036
300.041
300.047
300.052
300.058
300.064
300.07
300.076
300.083
300.089
300.096
300.103
300.11
300.118
300.125
300.133
300.141
300.149
300.157
300.166
300.174
300.183
300.191
300.2
300.209
300.218
300.228
300.237
300.246
300.256
300.265
300.275
300.284
300.294
300.303
300.313
300.323
300.332
300.342
300.352
300.362
300.371
300.381
300.39
300.4
300.409
300.419
300.428
300.438
300.447
300.456
300.465
300.474
300.483
300.492
300.501
300.51
300.519
300.527
300.536
300.544
300.552
300.561
300.569
300.577
300.585
300.592
300.6
300.608
300.615
300.622
300.63
300.637
300.002
300.005
300.009
300.013
300.017
300.021
300.026
300.03
300.035
300.04
300.045
300.05
300.055
300.061
300.067
300.073
300.079
300.085
300.092
300.098
300.105
300.112
300.119
300.127
300.134
300.142
300.149
300.157
300.165
300.173
300.182
300.19
300.198
300.207
300.215
300.224
300.233
300.241
300.25
300.259
300.268
300.277
300.286
300.295
300.304
300.313
300.322
300.331
300.34
300.348
300.357
300.366
300.375
300.384
300.392
300.401
300.41
300.418
300.427
300.435
300.444
300.452
300.46
300.468
300.476
300.484
300.492
300.5
300.507
300.515
300.523
300.53
300.537
300.545
300.552
300.559
300.566
300.572
300.579
300.586
300.592
300.002
300.005
300.009
300.012
300.016
300.02
300.025
300.029
300.033
300.038
300.043
300.048
300.053
300.059
300.064
300.07
300.076
300.082
300.088
300.094
300.101
300.107
300.114
300.121
300.128
300.135
300.142
300.15
300.157
300.165
300.173
300.181
300.188
300.196
300.204
300.212
300.221
300.229
300.237
300.245
300.254
300.262
300.27
300.279
300.287
300.295
300.304
300.312
300.32
300.328
300.337
300.345
300.353
300.361
300.369
300.377
300.385
300.393
300.401
300.409
300.416
300.424
300.432
300.439
300.447
300.454
300.461
300.468
300.475
300.482
300.489
300.496
300.503
300.51
300.516
300.523
300.529
300.535
300.542
300.548
300.554
300.002
300.005
300.008
300.012
300.016
300.02
300.024
300.028
300.032
300.037
300.041
300.046
300.051
300.056
300.062
300.067
300.073
300.079
300.084
300.09
300.097
300.103
300.109
300.116
300.123
300.13
300.137
300.144
300.151
300.158
300.165
300.173
300.18
300.188
300.195
300.203
300.211
300.218
300.226
300.234
300.242
300.25
300.257
300.265
300.273
300.281
300.289
300.296
300.304
300.312
300.32
300.327
300.335
300.343
300.35
300.358
300.365
300.372
300.38
300.387
300.394
300.401
300.408
300.415
300.422
300.429
300.436
300.443
300.449
300.456
300.462
300.469
300.475
300.481
300.487
300.493
300.499
300.505
300.511
300.517
300.522
300.002
300.005
300.008
300.012
300.015
300.019
300.023
300.027
300.031
300.036
300.04
300.045
300.05
300.055
300.06
300.065
300.071
300.076
300.082
300.088
300.094
300.1
300.106
300.112
300.119
300.125
300.132
300.139
300.146
300.153
300.16
300.167
300.174
300.181
300.188
300.196
300.203
300.211
300.218
300.225
300.233
300.24
300.248
300.255
300.263
300.27
300.278
300.285
300.292
300.3
300.307
300.315
300.322
300.329
300.336
300.343
300.35
300.357
300.364
300.371
300.378
300.385
300.392
300.398
300.405
300.411
300.418
300.424
300.43
300.436
300.442
300.449
300.454
300.46
300.466
300.472
300.478
300.483
300.489
300.494
300.499
300.002
300.005
300.008
300.011
300.015
300.019
300.023
300.027
300.031
300.035
300.04
300.044
300.049
300.054
300.059
300.064
300.069
300.075
300.081
300.086
300.092
300.098
300.104
300.11
300.117
300.123
300.13
300.136
300.143
300.15
300.157
300.164
300.171
300.178
300.185
300.192
300.199
300.206
300.213
300.221
300.228
300.235
300.243
300.25
300.257
300.264
300.272
300.279
300.286
300.293
300.3
300.307
300.314
300.321
300.328
300.335
300.342
300.349
300.356
300.362
300.369
300.376
300.382
300.389
300.395
300.401
300.408
300.414
300.42
300.426
300.432
300.438
300.443
300.449
300.455
300.46
300.466
300.471
300.476
300.482
300.487
303.014
303.143
303.221
303.293
303.356
303.408
303.443
303.483
303.522
303.559
303.59
303.625
303.659
303.693
303.727
303.76
303.791
303.818
303.847
303.877
303.906
303.935
303.964
303.993
304.022
304.05
304.077
304.105
304.132
304.159
304.185
304.212
304.237
304.263
304.289
304.313
304.338
304.363
304.387
304.411
304.435
304.458
304.483
304.509
304.534
304.558
304.58
304.604
304.629
304.653
304.676
304.697
304.72
304.743
304.766
304.79
304.814
304.838
304.861
304.883
304.902
304.922
304.943
304.965
304.987
305.009
305.03
305.052
305.073
305.093
305.114
305.134
305.153
305.173
305.192
305.212
305.23
305.249
305.267
305.286
305.308
305.328
305.346
305.363
305.379
305.394
305.411
305.431
305.448
305.463
305.477
305.493
305.511
305.526
305.542
305.559
305.575
305.588
305.603
305.618
305.63
305.644
305.655
305.669
305.682
305.697
305.709
305.719
305.73
305.74
305.75
305.762
305.773
305.785
305.794
305.802
305.81
305.82
305.828
305.836
305.841
305.848
305.854
305.86
305.865
305.869
305.872
305.875
305.878
305.88
305.88
305.88
305.879
305.877
305.873
305.868
305.863
305.855
305.847
305.837
305.825
305.812
305.797
305.78
305.761
305.74
305.717
305.691
305.661
305.627
305.586
305.544
305.502
305.454
305.4
305.339
305.273
305.161
305.059
304.929
304.76
302.913
303.027
303.115
303.191
303.256
303.311
303.357
303.401
303.442
303.482
303.518
303.554
303.59
303.625
303.659
303.692
303.724
303.755
303.785
303.815
303.845
303.875
303.905
303.934
303.963
303.992
304.02
304.048
304.075
304.102
304.129
304.156
304.182
304.208
304.234
304.26
304.285
304.31
304.335
304.359
304.384
304.408
304.432
304.458
304.483
304.507
304.531
304.555
304.579
304.603
304.626
304.649
304.672
304.695
304.719
304.742
304.766
304.79
304.813
304.835
304.855
304.876
304.898
304.919
304.941
304.963
304.985
305.006
305.027
305.048
305.069
305.089
305.109
305.129
305.148
305.168
305.187
305.206
305.224
305.244
305.265
305.284
305.302
305.32
305.336
305.353
305.37
305.389
305.406
305.422
305.437
305.453
305.47
305.485
305.501
305.518
305.534
305.548
305.563
305.577
305.59
305.604
305.616
305.629
305.643
305.657
305.669
305.68
305.691
305.701
305.712
305.723
305.735
305.746
305.755
305.764
305.772
305.781
305.79
305.798
305.804
305.81
305.817
305.822
305.827
305.831
305.835
305.838
305.841
305.842
305.843
305.843
305.842
305.839
305.836
305.831
305.825
305.818
305.81
305.8
305.788
305.775
305.76
305.743
305.724
305.703
305.679
305.653
305.623
305.589
305.548
305.506
305.463
305.414
305.359
305.296
305.225
305.117
305.009
304.873
304.687
302.831
302.931
303.017
303.092
303.158
303.217
303.268
303.315
303.36
303.401
303.441
303.479
303.516
303.552
303.588
303.622
303.655
303.687
303.719
303.75
303.78
303.811
303.841
303.871
303.901
303.93
303.959
303.987
304.015
304.043
304.07
304.097
304.124
304.15
304.177
304.203
304.228
304.254
304.279
304.304
304.329
304.353
304.378
304.404
304.429
304.453
304.478
304.502
304.526
304.55
304.574
304.597