/*--------------------------------*- C++ -*----------------------------------*\
| =========                 |                                                 |
| \\      /  F ield         | OpenFOAM: The Open Source CFD Toolbox           |
|  \\    /   O peration     | Version:  2106                                  |
|   \\  /    A nd           | Website:  www.openfoam.com                      |
|    \\/     M anipulation  |                                                 |
\*---------------------------------------------------------------------------*/
FoamFile
{
    version     2.0;
    format      ascii;
    arch        "LSB;label=32;scalar=64";
    class       volVectorField;
    location    "4";
    object      U;
}
// * * * * * * * * * * * * * * * * * * * * * * * * * * * * * * * * * * * * * //

dimensions      [0 1 -1 0 0 0 0];

internalField   nonuniform List<vector> 
12013
(
(0.100031 -8.55964e-06 0)
(0.100156 -1.58267e-05 0)
(0.10036 -2.25474e-05 0)
(0.100622 -2.87248e-05 0)
(0.100939 -3.4514e-05 0)
(0.101304 -4.00033e-05 0)
(0.101714 -4.52501e-05 0)
(0.102163 -5.03004e-05 0)
(0.102649 -5.51889e-05 0)
(0.103168 -5.99431e-05 0)
(0.103719 -6.45847e-05 0)
(0.104299 -6.91313e-05 0)
(0.104905 -7.35971e-05 0)
(0.105536 -7.79934e-05 0)
(0.10619 -8.23292e-05 0)
(0.106866 -8.66116e-05 0)
(0.107562 -9.08459e-05 0)
(0.108276 -9.50358e-05 0)
(0.109007 -9.91842e-05 0)
(0.109755 -0.000103292 0)
(0.110517 -0.00010736 0)
(0.111293 -0.000111387 0)
(0.112082 -0.000115372 0)
(0.112882 -0.000119313 0)
(0.113692 -0.000123206 0)
(0.114512 -0.000127047 0)
(0.11534 -0.000130833 0)
(0.116176 -0.00013456 0)
(0.117018 -0.00013822 0)
(0.117865 -0.00014181 0)
(0.118717 -0.000145322 0)
(0.119572 -0.00014875 0)
(0.12043 -0.000152087 0)
(0.121289 -0.000155324 0)
(0.122149 -0.000158455 0)
(0.123009 -0.000161469 0)
(0.123868 -0.000164358 0)
(0.124724 -0.000167109 0)
(0.125578 -0.000169712 0)
(0.126427 -0.000172153 0)
(0.127271 -0.000174419 0)
(0.12811 -0.000176492 0)
(0.128941 -0.000178355 0)
(0.129764 -0.000179986 0)
(0.130579 -0.000181364 0)
(0.131383 -0.000182462 0)
(0.132176 -0.00018325 0)
(0.132957 -0.000183694 0)
(0.133724 -0.000183756 0)
(0.134475 -0.000183391 0)
(0.135211 -0.000182547 0)
(0.135928 -0.000181166 0)
(0.136626 -0.000179178 0)
(0.137302 -0.000176505 0)
(0.137955 -0.00017305 0)
(0.138581 -0.000168705 0)
(0.13918 -0.000163336 0)
(0.139747 -0.000156788 0)
(0.140281 -0.000148873 0)
(0.140776 -0.000139363 0)
(0.141229 -0.000127978 0)
(0.141636 -0.000114377 0)
(0.14199 -9.81319e-05 0)
(0.142285 -7.8705e-05 0)
(0.142513 -5.5413e-05 0)
(0.142664 -2.73735e-05 0)
(0.142727 6.56892e-06 0)
(0.142686 4.79815e-05 0)
(0.142524 9.90243e-05 0)
(0.142217 0.000162699 0)
(0.141733 0.000243294 0)
(0.141031 0.000347113 0)
(0.140053 0.000483686 0)
(0.13872 0.000667887 0)
(0.136914 0.000923693 0)
(0.134462 0.00129106 0)
(0.131095 0.00183889 0)
(0.126372 0.00269305 0)
(0.119562 0.00412204 0)
(0.10968 0.00690554 0)
(0.0983621 0.0146637 0)
(0.100028 -2.61385e-05 0)
(0.100154 -4.85274e-05 0)
(0.100356 -6.9168e-05 0)
(0.100618 -8.8127e-05 0)
(0.100934 -0.000105895 0)
(0.101298 -0.000122741 0)
(0.101707 -0.000138841 0)
(0.102155 -0.000154336 0)
(0.10264 -0.000169335 0)
(0.103159 -0.00018392 0)
(0.103709 -0.000198159 0)
(0.104288 -0.000212105 0)
(0.104893 -0.000225803 0)
(0.105523 -0.000239287 0)
(0.106176 -0.000252584 0)
(0.106851 -0.000265717 0)
(0.107546 -0.000278701 0)
(0.108259 -0.000291549 0)
(0.108989 -0.000304268 0)
(0.109735 -0.000316863 0)
(0.110496 -0.000329333 0)
(0.111271 -0.000341679 0)
(0.112058 -0.000353893 0)
(0.112857 -0.000365971 0)
(0.113665 -0.000377902 0)
(0.114484 -0.000389674 0)
(0.11531 -0.000401277 0)
(0.116144 -0.000412693 0)
(0.116984 -0.000423909 0)
(0.11783 -0.000434905 0)
(0.11868 -0.000445663 0)
(0.119533 -0.000456162 0)
(0.120389 -0.000466381 0)
(0.121246 -0.000476295 0)
(0.122104 -0.00048588 0)
(0.122961 -0.000495108 0)
(0.123818 -0.000503948 0)
(0.124672 -0.000512367 0)
(0.125523 -0.000520331 0)
(0.12637 -0.000527799 0)
(0.127212 -0.000534726 0)
(0.128047 -0.000541063 0)
(0.128876 -0.000546754 0)
(0.129697 -0.000551737 0)
(0.130509 -0.000555942 0)
(0.13131 -0.000559288 0)
(0.1321 -0.000561684 0)
(0.132878 -0.000563027 0)
(0.133642 -0.000563198 0)
(0.134391 -0.000562062 0)
(0.135124 -0.000559462 0)
(0.135838 -0.000555216 0)
(0.136533 -0.000549116 0)
(0.137206 -0.000540917 0)
(0.137856 -0.000530332 0)
(0.13848 -0.000517024 0)
(0.139077 -0.000500593 0)
(0.139642 -0.000480564 0)
(0.140173 -0.000456364 0)
(0.140667 -0.000427304 0)
(0.141119 -0.000392538 0)
(0.141526 -0.00035103 0)
(0.14188 -0.00030149 0)
(0.142177 -0.000242299 0)
(0.142408 -0.000171402 0)
(0.142565 -8.61548e-05 0)
(0.142635 1.68889e-05 0)
(0.142607 0.000142349 0)
(0.142463 0.000296535 0)
(0.142181 0.000488159 0)
(0.141735 0.000729537 0)
(0.141089 0.00103849 0)
(0.140197 0.00144149 0)
(0.138995 0.0019788 0)
(0.137401 0.00271333 0)
(0.135299 0.00374539 0)
(0.132536 0.00523702 0)
(0.128901 0.00745128 0)
(0.124143 0.0108163 0)
(0.118281 0.0159406 0)
(0.1134 0.0230577 0)
(0.100026 -4.44407e-05 0)
(0.10015 -8.32475e-05 0)
(0.10035 -0.000118796 0)
(0.100611 -0.000151438 0)
(0.100925 -0.000182022 0)
(0.101288 -0.000211013 0)
(0.101695 -0.000238716 0)
(0.102142 -0.000265375 0)
(0.102625 -0.000291176 0)
(0.103142 -0.000316263 0)
(0.10369 -0.000340752 0)
(0.104267 -0.000364737 0)
(0.10487 -0.000388291 0)
(0.105498 -0.000411475 0)
(0.106149 -0.000434336 0)
(0.106822 -0.000456912 0)
(0.107514 -0.000479231 0)
(0.108225 -0.000501313 0)
(0.108952 -0.000523171 0)
(0.109696 -0.000544813 0)
(0.110454 -0.00056624 0)
(0.111226 -0.000587449 0)
(0.11201 -0.000608432 0)
(0.112806 -0.000629176 0)
(0.113612 -0.000649665 0)
(0.114427 -0.000669881 0)
(0.11525 -0.0006898 0)
(0.11608 -0.000709398 0)
(0.116917 -0.000728647 0)
(0.117758 -0.000747517 0)
(0.118604 -0.000765973 0)
(0.119454 -0.000783983 0)
(0.120305 -0.000801507 0)
(0.121159 -0.000818505 0)
(0.122012 -0.000834933 0)
(0.122865 -0.000850744 0)
(0.123717 -0.000865886 0)
(0.124566 -0.000880302 0)
(0.125413 -0.000893931 0)
(0.126254 -0.000906704 0)
(0.127091 -0.000918545 0)
(0.127922 -0.000929368 0)
(0.128745 -0.00093908 0)
(0.129561 -0.000947573 0)
(0.130367 -0.000954725 0)
(0.131163 -0.0009604 0)
(0.131947 -0.000964443 0)
(0.132719 -0.000966677 0)
(0.133478 -0.000966899 0)
(0.134221 -0.000964878 0)
(0.134947 -0.000960346 0)
(0.135656 -0.000952998 0)
(0.136345 -0.000942475 0)
(0.137013 -0.000928362 0)
(0.137657 -0.000910176 0)
(0.138276 -0.000887344 0)
(0.138867 -0.000859194 0)
(0.139427 -0.000824922 0)
(0.139954 -0.000783569 0)
(0.140445 -0.000733977 0)
(0.140894 -0.000674737 0)
(0.141299 -0.000604123 0)
(0.141654 -0.000520001 0)
(0.141953 -0.000419702 0)
(0.142189 -0.00029986 0)
(0.142354 -0.000156174 0)
(0.142439 1.69114e-05 0)
(0.142431 0.000226716 0)
(0.142317 0.000483089 0)
(0.142079 0.000799415 0)
(0.141697 0.00119419 0)
(0.141145 0.00169342 0)
(0.140391 0.00233433 0)
(0.1394 0.00317102 0)
(0.138128 0.00428307 0)
(0.136533 0.00578791 0)
(0.134581 0.0078564 0)
(0.132276 0.0107266 0)
(0.129719 0.0146993 0)
(0.127302 0.0200042 0)
(0.126173 0.0260676 0)
(0.100024 -6.33132e-05 0)
(0.100145 -0.000119896 0)
(0.100343 -0.00017138 0)
(0.100601 -0.00021868 0)
(0.100913 -0.000262976 0)
(0.101273 -0.00030495 0)
(0.101678 -0.000345051 0)
(0.102122 -0.000383633 0)
(0.102603 -0.000420966 0)
(0.103117 -0.00045726 0)
(0.103662 -0.000492684 0)
(0.104236 -0.000527372 0)
(0.104836 -0.000561432 0)
(0.105461 -0.000594952 0)
(0.106109 -0.000628001 0)
(0.106778 -0.000660632 0)
(0.107467 -0.000692887 0)
(0.108173 -0.000724795 0)
(0.108897 -0.000756374 0)
(0.109637 -0.000787636 0)
(0.110391 -0.000818583 0)
(0.111159 -0.000849209 0)
(0.111938 -0.000879502 0)
(0.112729 -0.000909445 0)
(0.11353 -0.000939015 0)
(0.11434 -0.000968184 0)
(0.115158 -0.000996918 0)
(0.115983 -0.00102518 0)
(0.116814 -0.00105294 0)
(0.11765 -0.00108013 0)
(0.118491 -0.00110673 0)
(0.119334 -0.00113267 0)
(0.120179 -0.00115791 0)
(0.121026 -0.00118238 0)
(0.121873 -0.00120601 0)
(0.122719 -0.00122875 0)
(0.123564 -0.00125052 0)
(0.124407 -0.00127122 0)
(0.125245 -0.00129079 0)
(0.12608 -0.00130911 0)
(0.126909 -0.00132607 0)
(0.127732 -0.00134157 0)
(0.128547 -0.00135544 0)
(0.129355 -0.00136756 0)
(0.130152 -0.00137773 0)
(0.13094 -0.00138576 0)
(0.131716 -0.00139144 0)
(0.13248 -0.0013945 0)
(0.133229 -0.00139467 0)
(0.133964 -0.0013916 0)
(0.134681 -0.00138491 0)
(0.135381 -0.00137418 0)
(0.136062 -0.00135889 0)
(0.136721 -0.00133846 0)
(0.137357 -0.0013122 0)
(0.137968 -0.00127931 0)
(0.138552 -0.00123883 0)
(0.139105 -0.00118965 0)
(0.139627 -0.00113042 0)
(0.140112 -0.00105954 0)
(0.140558 -0.000975056 0)
(0.140962 -0.000874601 0)
(0.141317 -0.000755259 0)
(0.14162 -0.000613415 0)
(0.141864 -0.000444547 0)
(0.142043 -0.000242942 0)
(0.142149 -1.31603e-06 0)
(0.142172 0.000289695 0)
(0.142102 0.000642446 0)
(0.141927 0.00107334 0)
(0.141634 0.00160432 0)
(0.14121 0.00226506 0)
(0.140639 0.00309602 0)
(0.139909 0.00415247 0)
(0.139018 0.00550968 0)
(0.137975 0.00726803 0)
(0.136825 0.00955487 0)
(0.135673 0.0125132 0)
(0.13472 0.0162547 0)
(0.134318 0.0207093 0)
(0.134963 0.0252177 0)
(0.100021 -8.27656e-05 0)
(0.100141 -0.00015841 0)
(0.100335 -0.000226891 0)
(0.10059 -0.000289874 0)
(0.100898 -0.000348834 0)
(0.101255 -0.000404679 0)
(0.101656 -0.000458016 0)
(0.102096 -0.000509319 0)
(0.102573 -0.00055895 0)
(0.103084 -0.000607189 0)
(0.103625 -0.00065426 0)
(0.104195 -0.000700344 0)
(0.104791 -0.000745585 0)
(0.105412 -0.000790099 0)
(0.106055 -0.000833978 0)
(0.106719 -0.000877294 0)
(0.107403 -0.000920101 0)
(0.108105 -0.000962438 0)
(0.108824 -0.00100433 0)
(0.109558 -0.00104579 0)
(0.110306 -0.00108683 0)
(0.111068 -0.00112743 0)
(0.111842 -0.00116757 0)
(0.112626 -0.00120725 0)
(0.113421 -0.00124642 0)
(0.114224 -0.00128504 0)
(0.115035 -0.00132308 0)
(0.115853 -0.00136049 0)
(0.116677 -0.0013972 0)
(0.117505 -0.00143317 0)
(0.118337 -0.00146833 0)
(0.119172 -0.0015026 0)
(0.12001 -0.00153593 0)
(0.120848 -0.00156823 0)
(0.121686 -0.00159941 0)
(0.122523 -0.00162938 0)
(0.123359 -0.00165805 0)
(0.124191 -0.00168531 0)
(0.12502 -0.00171104 0)
(0.125845 -0.0017351 0)
(0.126664 -0.00175736 0)
(0.127476 -0.00177765 0)
(0.128281 -0.00179579 0)
(0.129078 -0.00181158 0)
(0.129865 -0.00182479 0)
(0.130641 -0.00183516 0)
(0.131406 -0.00184241 0)
(0.132158 -0.00184619 0)
(0.132896 -0.00184613 0)
(0.13362 -0.00184181 0)
(0.134326 -0.00183272 0)
(0.135015 -0.0018183 0)
(0.135684 -0.0017979 0)
(0.136333 -0.00177075 0)
(0.136958 -0.00173597 0)
(0.137559 -0.00169254 0)
(0.138134 -0.00163924 0)
(0.138679 -0.00157465 0)
(0.139193 -0.00149708 0)
(0.139673 -0.0014045 0)
(0.140116 -0.00129449 0)
(0.140518 -0.00116412 0)
(0.140876 -0.00100982 0)
(0.141186 -0.000827206 0)
(0.141442 -0.000610867 0)
(0.14164 -0.000354068 0)
(0.141774 -4.8378e-05 0)
(0.141838 0.00031675 0)
(0.141826 0.000754822 0)
(0.141731 0.00128324 0)
(0.141549 0.0019244 0)
(0.141275 0.00270712 0)
(0.14091 0.00366841 0)
(0.140463 0.00485529 0)
(0.139952 0.006326 0)
(0.13942 0.00814924 0)
(0.13894 0.0103977 0)
(0.138632 0.0131288 0)
(0.138674 0.0163385 0)
(0.139291 0.019867 0)
(0.140674 0.0232411 0)
(0.100019 -0.000102808 0)
(0.100136 -0.000198729 0)
(0.100326 -0.000285293 0)
(0.100576 -0.000365018 0)
(0.100881 -0.000439636 0)
(0.101233 -0.000510285 0)
(0.10163 -0.00057774 0)
(0.102066 -0.000642603 0)
(0.102538 -0.000705332 0)
(0.103044 -0.000766285 0)
(0.10358 -0.000825746 0)
(0.104145 -0.000883945 0)
(0.104735 -0.000941063 0)
(0.10535 -0.000997249 0)
(0.105988 -0.00105262 0)
(0.106646 -0.00110726 0)
(0.107324 -0.00116125 0)
(0.108019 -0.00121463 0)
(0.108731 -0.00126743 0)
(0.109459 -0.00131968 0)
(0.1102 -0.00137137 0)
(0.110954 -0.0014225 0)
(0.11172 -0.00147305 0)
(0.112497 -0.00152298 0)
(0.113283 -0.00157225 0)
(0.114078 -0.00162083 0)
(0.11488 -0.00166865 0)
(0.115689 -0.00171565 0)
(0.116503 -0.00176177 0)
(0.117322 -0.00180692 0)
(0.118144 -0.00185104 0)
(0.118969 -0.00189403 0)
(0.119795 -0.0019358 0)
(0.120623 -0.00197625 0)
(0.12145 -0.00201527 0)
(0.122276 -0.00205276 0)
(0.1231 -0.00208858 0)
(0.123921 -0.0021226 0)
(0.124737 -0.00215467 0)
(0.12555 -0.00218463 0)
(0.126356 -0.00221229 0)
(0.127155 -0.00223746 0)
(0.127947 -0.00225991 0)
(0.12873 -0.00227938 0)
(0.129504 -0.00229559 0)
(0.130267 -0.00230823 0)
(0.131018 -0.00231693 0)
(0.131756 -0.00232127 0)
(0.132481 -0.00232081 0)
(0.13319 -0.00231499 0)
(0.133883 -0.00230323 0)
(0.134558 -0.00228482 0)
(0.135214 -0.00225897 0)
(0.13585 -0.00222475 0)
(0.136463 -0.00218111 0)
(0.137053 -0.0021268 0)
(0.137616 -0.00206038 0)
(0.138152 -0.00198015 0)
(0.138659 -0.00188413 0)
(0.139133 -0.00176994 0)
(0.139573 -0.00163478 0)
(0.139975 -0.00147528 0)
(0.140337 -0.00128741 0)
(0.140656 -0.00106626 0)
(0.140929 -0.000805911 0)
(0.141152 -0.000499092 0)
(0.141322 -0.000136935 0)
(0.141436 0.000291336 0)
(0.141492 0.000798956 0)
(0.14149 0.00140238 0)
(0.141429 0.00212182 0)
(0.141316 0.00298182 0)
(0.141161 0.00401174 0)
(0.140983 0.00524568 0)
(0.140815 0.00672128 0)
(0.140704 0.00847607 0)
(0.140725 0.0105393 0)
(0.140976 0.0129156 0)
(0.141578 0.0155563 0)
(0.142654 0.0183148 0)
(0.144265 0.0208995 0)
(0.100017 -0.00012345 0)
(0.100131 -0.000240803 0)
(0.100317 -0.00034655 0)
(0.100562 -0.000444089 0)
(0.100861 -0.000535395 0)
(0.101209 -0.000621819 0)
(0.1016 -0.000704312 0)
(0.10203 -0.000783607 0)
(0.102497 -0.000860269 0)
(0.102997 -0.000934735 0)
(0.103527 -0.00100736 0)
(0.104085 -0.00107841 0)
(0.104669 -0.00114812 0)
(0.105277 -0.00121668 0)
(0.105908 -0.00128421 0)
(0.106559 -0.00135084 0)
(0.107229 -0.00141665 0)
(0.107916 -0.00148169 0)
(0.10862 -0.00154601 0)
(0.109339 -0.00160963 0)
(0.110071 -0.00167255 0)
(0.110817 -0.00173476 0)
(0.111573 -0.00179623 0)
(0.11234 -0.00185694 0)
(0.113116 -0.00191682 0)
(0.113901 -0.00197582 0)
(0.114692 -0.00203388 0)
(0.11549 -0.00209092 0)
(0.116293 -0.00214685 0)
(0.1171 -0.00220158 0)
(0.11791 -0.00225502 0)
(0.118723 -0.00230706 0)
(0.119537 -0.00235759 0)
(0.120351 -0.00240648 0)
(0.121165 -0.0024536 0)
(0.121977 -0.00249883 0)
(0.122787 -0.002542 0)
(0.123594 -0.00258295 0)
(0.124396 -0.00262149 0)
(0.125194 -0.00265745 0)
(0.125985 -0.00269058 0)
(0.126769 -0.00272065 0)
(0.127545 -0.00274739 0)
(0.128313 -0.0027705 0)
(0.129071 -0.00278964 0)
(0.129817 -0.00280442 0)
(0.130552 -0.00281442 0)
(0.131275 -0.00281914 0)
(0.131983 -0.00281805 0)
(0.132676 -0.0028105 0)
(0.133353 -0.0027958 0)
(0.134013 -0.00277313 0)
(0.134654 -0.00274156 0)
(0.135275 -0.00270003 0)
(0.135874 -0.00264731 0)
(0.136451 -0.00258198 0)
(0.137003 -0.0025024 0)
(0.13753 -0.00240667 0)
(0.138028 -0.00229256 0)
(0.138497 -0.00215746 0)
(0.138934 -0.0019983 0)
(0.139339 -0.00181146 0)
(0.139707 -0.00159266 0)
(0.140039 -0.0013368 0)
(0.140332 -0.00103783 0)
(0.140585 -0.000688513 0)
(0.140797 -0.000280266 0)
(0.140967 0.000197044 0)
(0.141098 0.000755151 0)
(0.141192 0.00140806 0)
(0.141256 0.00217204 0)
(0.1413 0.00306555 0)
(0.141339 0.0041088 0)
(0.141398 0.00532267 0)
(0.141509 0.0067266 0)
(0.141718 0.00833467 0)
(0.142082 0.0101491 0)
(0.14267 0.01215 0)
(0.143554 0.0142815 0)
(0.144794 0.0164351 0)
(0.146397 0.018442 0)
(0.100014 -0.00014471 0)
(0.100126 -0.000284597 0)
(0.100307 -0.000410624 0)
(0.100547 -0.000527058 0)
(0.10084 -0.000636102 0)
(0.101182 -0.0007393 0)
(0.101566 -0.00083778 0)
(0.10199 -0.000932413 0)
(0.10245 -0.00102387 0)
(0.102943 -0.00111268 0)
(0.103466 -0.00119925 0)
(0.104016 -0.00128392 0)
(0.104593 -0.00136697 0)
(0.105193 -0.0014486 0)
(0.105815 -0.00152898 0)
(0.106457 -0.00160826 0)
(0.107118 -0.00168653 0)
(0.107796 -0.00176386 0)
(0.10849 -0.0018403 0)
(0.109199 -0.00191587 0)
(0.109921 -0.00199058 0)
(0.110656 -0.00206441 0)
(0.111401 -0.00213734 0)
(0.112157 -0.00220932 0)
(0.112921 -0.00228028 0)
(0.113693 -0.00235017 0)
(0.114472 -0.0024189 0)
(0.115257 -0.00248638 0)
(0.116047 -0.00255251 0)
(0.11684 -0.00261718 0)
(0.117637 -0.00268027 0)
(0.118435 -0.00274166 0)
(0.119234 -0.00280122 0)
(0.120033 -0.00285879 0)
(0.120832 -0.00291423 0)
(0.121628 -0.00296737 0)
(0.122422 -0.00301804 0)
(0.123212 -0.00306603 0)
(0.123998 -0.00311113 0)
(0.124778 -0.00315312 0)
(0.125552 -0.00319173 0)
(0.126318 -0.00322668 0)
(0.127077 -0.00325766 0)
(0.127826 -0.00328431 0)
(0.128566 -0.00330624 0)
(0.129294 -0.00332301 0)
(0.130011 -0.00333412 0)
(0.130715 -0.00333902 0)
(0.131405 -0.00333707 0)
(0.13208 -0.00332757 0)
(0.13274 -0.0033097 0)
(0.133382 -0.00328256 0)
(0.134007 -0.00324511 0)
(0.134612 -0.00319615 0)
(0.135196 -0.00313433 0)
(0.135759 -0.0030581 0)
(0.1363 -0.00296569 0)
(0.136816 -0.00285502 0)
(0.137306 -0.00272375 0)
(0.13777 -0.00256913 0)
(0.138207 -0.00238799 0)
(0.138614 -0.00217665 0)
(0.138992 -0.00193083 0)
(0.139339 -0.00164557 0)
(0.139655 -0.0013151 0)
(0.139941 -0.000932757 0)
(0.140198 -0.00049084 0)
(0.140427 1.94327e-05 0)
(0.140634 0.000607575 0)
(0.140823 0.0012842 0)
(0.141004 0.00206094 0)
(0.14119 0.00294987 0)
(0.141396 0.00396266 0)
(0.141647 0.0051093 0)
(0.14197 0.00639603 0)
(0.142402 0.00782243 0)
(0.142981 0.00937739 0)
(0.143752 0.011034 0)
(0.144753 0.0127442 0)
(0.146007 0.0144349 0)
(0.147507 0.0160107 0)
(0.100012 -0.000166616 0)
(0.100121 -0.000330083 0)
(0.100297 -0.000477486 0)
(0.100531 -0.000613888 0)
(0.100818 -0.000741728 0)
(0.101153 -0.000862719 0)
(0.10153 -0.000978157 0)
(0.101947 -0.00108905 0)
(0.102398 -0.00119619 0)
(0.102883 -0.00130019 0)
(0.103397 -0.00140152 0)
(0.103939 -0.00150059 0)
(0.104507 -0.00159772 0)
(0.105097 -0.00169315 0)
(0.10571 -0.00178708 0)
(0.106342 -0.00187967 0)
(0.106992 -0.00197105 0)
(0.10766 -0.00206128 0)
(0.108343 -0.00215043 0)
(0.10904 -0.00223853 0)
(0.10975 -0.00232558 0)
(0.110472 -0.00241157 0)
(0.111205 -0.00249645 0)
(0.111947 -0.00258018 0)
(0.112698 -0.00266269 0)
(0.113456 -0.00274389 0)
(0.114221 -0.00282369 0)
(0.114991 -0.00290199 0)
(0.115765 -0.00297867 0)
(0.116543 -0.00305359 0)
(0.117323 -0.00312662 0)
(0.118105 -0.00319762 0)
(0.118887 -0.00326643 0)
(0.119669 -0.00333288 0)
(0.12045 -0.00339679 0)
(0.121228 -0.00345798 0)
(0.122004 -0.00351622 0)
(0.122775 -0.00357131 0)
(0.123542 -0.00362299 0)
(0.124303 -0.003671 0)
(0.125057 -0.00371504 0)
(0.125804 -0.00375479 0)
(0.126543 -0.00378989 0)
(0.127272 -0.00381994 0)
(0.127991 -0.0038445 0)
(0.128699 -0.00386307 0)
(0.129396 -0.0038751 0)
(0.13008 -0.00387996 0)
(0.13075 -0.00387696 0)
(0.131405 -0.00386531 0)
(0.132045 -0.00384412 0)
(0.132669 -0.00381241 0)
(0.133275 -0.00376904 0)
(0.133864 -0.00371274 0)
(0.134433 -0.00364206 0)
(0.134981 -0.00355538 0)
(0.135509 -0.00345083 0)
(0.136015 -0.00332631 0)
(0.136498 -0.00317941 0)
(0.136958 -0.0030074 0)
(0.137394 -0.00280716 0)
(0.137806 -0.00257516 0)
(0.138194 -0.00230738 0)
(0.138558 -0.00199928 0)
(0.138899 -0.00164575 0)
(0.13922 -0.00124107 0)
(0.139521 -0.00077891 0)
(0.139809 -0.000252364 0)
(0.140087 0.000345863 0)
(0.140364 0.00102263 0)
(0.140648 0.00178508 0)
(0.140952 0.0026397 0)
(0.141292 0.00359142 0)
(0.141688 0.00464258 0)
(0.14216 0.00579137 0)
(0.142734 0.00703014 0)
(0.143436 0.00834334 0)
(0.144289 0.00970561 0)
(0.145312 0.0110804 0)
(0.146513 0.0124207 0)
(0.147878 0.0136728 0)
(0.100009 -0.000189193 0)
(0.100116 -0.000377242 0)
(0.100287 -0.000547102 0)
(0.100515 -0.000704534 0)
(0.100795 -0.000852228 0)
(0.101122 -0.000992036 0)
(0.101491 -0.00112542 0)
(0.101899 -0.00125352 0)
(0.102342 -0.00137724 0)
(0.102818 -0.00149728 0)
(0.103322 -0.0016142 0)
(0.103854 -0.00172846 0)
(0.104411 -0.00184042 0)
(0.104991 -0.00195037 0)
(0.105592 -0.00205854 0)
(0.106213 -0.00216512 0)
(0.106851 -0.00227024 0)
(0.107506 -0.00237399 0)
(0.108177 -0.00247645 0)
(0.108861 -0.00257763 0)
(0.109557 -0.00267756 0)
(0.110265 -0.0027762 0)
(0.110983 -0.00287352 0)
(0.111711 -0.00296945 0)
(0.112446 -0.00306392 0)
(0.113189 -0.00315683 0)
(0.113937 -0.00324807 0)
(0.11469 -0.00333752 0)
(0.115447 -0.00342504 0)
(0.116207 -0.00351049 0)
(0.11697 -0.0035937 0)
(0.117733 -0.00367452 0)
(0.118496 -0.00375275 0)
(0.119259 -0.00382821 0)
(0.12002 -0.0039007 0)
(0.120779 -0.00396999 0)
(0.121534 -0.00403585 0)
(0.122284 -0.00409803 0)
(0.12303 -0.00415624 0)
(0.123769 -0.0042102 0)
(0.124502 -0.00425957 0)
(0.125227 -0.00430399 0)
(0.125944 -0.00434306 0)
(0.126651 -0.00437634 0)
(0.127348 -0.00440334 0)
(0.128034 -0.00442351 0)
(0.128708 -0.00443626 0)
(0.12937 -0.00444089 0)
(0.130019 -0.00443667 0)
(0.130653 -0.00442275 0)
(0.131273 -0.00439819 0)
(0.131876 -0.00436193 0)
(0.132464 -0.00431279 0)
(0.133034 -0.00424947 0)
(0.133587 -0.00417047 0)
(0.134121 -0.00407413 0)
(0.134636 -0.00395862 0)
(0.135132 -0.00382183 0)
(0.135608 -0.00366144 0)
(0.136064 -0.00347487 0)
(0.136501 -0.0032592 0)
(0.136918 -0.00301124 0)
(0.137317 -0.00272743 0)
(0.137698 -0.0024039 0)
(0.138064 -0.00203643 0)
(0.138418 -0.00162052 0)
(0.138762 -0.00115143 0)
(0.139102 -0.000624278 0)
(0.139443 -3.41334e-05 0)
(0.139794 0.000623122 0)
(0.140163 0.00135048 0)
(0.14056 0.00215015 0)
(0.141 0.00302248 0)
(0.141495 0.0039652 0)
(0.142063 0.00497253 0)
(0.142719 0.00603436 0)
(0.143477 0.00713544 0)
(0.144351 0.00825507 0)
(0.145346 0.00936727 0)
(0.146464 0.0104422 0)
(0.147693 0.0114495 0)
(0.100006 -0.000212465 0)
(0.100111 -0.000426053 0)
(0.100277 -0.000619433 0)
(0.100498 -0.000798942 0)
(0.100771 -0.000967531 0)
(0.101089 -0.00112718 0)
(0.10145 -0.00127949 0)
(0.101849 -0.00142574 0)
(0.102282 -0.00156694 0)
(0.102747 -0.00170389 0)
(0.103241 -0.00183723 0)
(0.103762 -0.00196747 0)
(0.104307 -0.00209502 0)
(0.104875 -0.00222021 0)
(0.105463 -0.00234332 0)
(0.106071 -0.00246454 0)
(0.106696 -0.00258403 0)
(0.107337 -0.0027019 0)
(0.107993 -0.00281822 0)
(0.108662 -0.00293303 0)
(0.109343 -0.00304634 0)
(0.110036 -0.00315811 0)
(0.110738 -0.00326831 0)
(0.111448 -0.00337687 0)
(0.112166 -0.00348368 0)
(0.112891 -0.00358865 0)
(0.113621 -0.00369165 0)
(0.114356 -0.00379254 0)
(0.115094 -0.00389116 0)
(0.115834 -0.00398735 0)
(0.116577 -0.00408092 0)
(0.117319 -0.0041717 0)
(0.118062 -0.00425947 0)
(0.118803 -0.00434401 0)
(0.119543 -0.00442511 0)
(0.120279 -0.00450251 0)
(0.121011 -0.00457596 0)
(0.121739 -0.00464516 0)
(0.122462 -0.00470982 0)
(0.123178 -0.00476961 0)
(0.123887 -0.00482416 0)
(0.124588 -0.00487307 0)
(0.125281 -0.00491592 0)
(0.125964 -0.00495222 0)
(0.126637 -0.00498145 0)
(0.1273 -0.00500303 0)
(0.12795 -0.0050163 0)
(0.128589 -0.00502057 0)
(0.129214 -0.00501502 0)
(0.129826 -0.0049988 0)
(0.130424 -0.00497093 0)
(0.131007 -0.00493032 0)
(0.131575 -0.0048758 0)
(0.132127 -0.00480603 0)
(0.132662 -0.00471955 0)
(0.133182 -0.00461475 0)
(0.133684 -0.00448985 0)
(0.13417 -0.00434289 0)
(0.134639 -0.00417173 0)
(0.135092 -0.00397402 0)
(0.135529 -0.00374721 0)
(0.135951 -0.00348857 0)
(0.13636 -0.00319518 0)
(0.136758 -0.00286395 0)
(0.137147 -0.00249172 0)
(0.137529 -0.00207525 0)
(0.13791 -0.00161141 0)
(0.138295 -0.00109723 0)
(0.138687 -0.000530052 0)
(0.139097 9.23896e-05 0)
(0.139529 0.000770389 0)
(0.139994 0.00150289 0)
(0.140501 0.00228754 0)
(0.141059 0.00311982 0)
(0.14168 0.00399267 0)
(0.142372 0.00489616 0)
(0.143144 0.00581735 0)
(0.144 0.00674054 0)
(0.144944 0.00764786 0)
(0.145971 0.00852056 0)
(0.147072 0.00934111 0)
(0.100003 -0.000236447 0)
(0.100106 -0.000476488 0)
(0.100267 -0.000694424 0)
(0.100481 -0.000897035 0)
(0.100746 -0.00108754 0)
(0.101056 -0.00126803 0)
(0.101407 -0.00144024 0)
(0.101795 -0.00160558 0)
(0.102217 -0.00176517 0)
(0.102671 -0.00191989 0)
(0.103153 -0.00207046 0)
(0.103661 -0.00221746 0)
(0.104194 -0.00236135 0)
(0.104748 -0.0025025 0)
(0.105323 -0.00264121 0)
(0.105916 -0.00277772 0)
(0.106526 -0.00291219 0)
(0.107152 -0.00304475 0)
(0.107792 -0.00317548 0)
(0.108444 -0.00330442 0)
(0.109109 -0.00343158 0)
(0.109783 -0.00355693 0)
(0.110467 -0.00368041 0)
(0.111159 -0.00380196 0)
(0.111858 -0.00392146 0)
(0.112563 -0.00403879 0)
(0.113274 -0.00415381 0)
(0.113988 -0.00426637 0)
(0.114705 -0.00437628 0)
(0.115424 -0.00448337 0)
(0.116144 -0.00458743 0)
(0.116864 -0.00468824 0)
(0.117584 -0.00478559 0)
(0.118302 -0.00487924 0)
(0.119017 -0.00496892 0)
(0.11973 -0.00505437 0)
(0.120438 -0.00513531 0)
(0.121141 -0.00521142 0)
(0.121838 -0.00528237 0)
(0.122529 -0.0053478 0)
(0.123213 -0.00540732 0)
(0.123889 -0.00546052 0)
(0.124556 -0.00550692 0)
(0.125213 -0.00554603 0)
(0.125861 -0.00557729 0)
(0.126498 -0.00560008 0)
(0.127123 -0.00561374 0)
(0.127737 -0.00561754 0)
(0.128338 -0.00561067 0)
(0.128927 -0.00559224 0)
(0.129502 -0.00556128 0)
(0.130063 -0.00551672 0)
(0.130611 -0.00545739 0)
(0.131143 -0.00538203 0)
(0.131662 -0.00528925 0)
(0.132166 -0.00517753 0)
(0.132655 -0.00504525 0)
(0.133131 -0.00489064 0)
(0.133592 -0.00471184 0)
(0.134041 -0.00450684 0)
(0.134478 -0.00427356 0)
(0.134905 -0.0040098 0)
(0.135323 -0.00371334 0)
(0.135734 -0.00338197 0)
(0.136141 -0.00301352 0)
(0.136548 -0.00260599 0)
(0.136958 -0.00215766 0)
(0.137376 -0.00166718 0)
(0.137808 -0.00113371 0)
(0.138258 -0.000556971 0)
(0.138734 6.27414e-05 0)
(0.139241 0.00072279 0)
(0.139787 0.00141883 0)
(0.140378 0.00214567 0)
(0.141019 0.00289649 0)
(0.141717 0.00366272 0)
(0.142474 0.0044342 0)
(0.143293 0.00519953 0)
(0.144173 0.00594665 0)
(0.145109 0.00666372 0)
(0.146095 0.00734052 0)
(0.1 -0.000261142 0)
(0.100101 -0.000528509 0)
(0.100257 -0.000771999 0)
(0.100464 -0.000998708 0)
(0.10072 -0.00121212 0)
(0.10102 -0.00141444 0)
(0.101361 -0.0016075 0)
(0.101738 -0.00179285 0)
(0.102149 -0.0019717 0)
(0.10259 -0.00214504 0)
(0.103059 -0.00231365 0)
(0.103554 -0.00247817 0)
(0.104072 -0.00263912 0)
(0.104611 -0.00279691 0)
(0.105171 -0.00295188 0)
(0.105748 -0.00310428 0)
(0.106342 -0.00325431 0)
(0.10695 -0.00340209 0)
(0.107572 -0.00354774 0)
(0.108207 -0.00369127 0)
(0.108853 -0.00383272 0)
(0.109508 -0.00397203 0)
(0.110172 -0.00410916 0)
(0.110844 -0.00424402 0)
(0.111522 -0.00437648 0)
(0.112206 -0.00450642 0)
(0.112894 -0.00463367 0)
(0.113585 -0.00475806 0)
(0.114279 -0.0048794 0)
(0.114975 -0.00499747 0)
(0.115671 -0.00511206 0)
(0.116367 -0.00522293 0)
(0.117062 -0.00532984 0)
(0.117754 -0.00543252 0)
(0.118444 -0.00553069 0)
(0.11913 -0.00562406 0)
(0.119812 -0.00571232 0)
(0.120489 -0.00579515 0)
(0.121159 -0.00587218 0)
(0.121823 -0.00594303 0)
(0.12248 -0.0060073 0)
(0.123128 -0.00606453 0)
(0.123768 -0.00611426 0)
(0.124398 -0.00615594 0)
(0.125019 -0.00618903 0)
(0.125629 -0.00621289 0)
(0.126228 -0.00622684 0)
(0.126816 -0.00623017 0)
(0.127392 -0.00622206 0)
(0.127956 -0.00620164 0)
(0.128508 -0.00616798 0)
(0.129046 -0.00612005 0)
(0.129573 -0.00605677 0)
(0.130086 -0.00597694 0)
(0.130586 -0.0058793 0)
(0.131075 -0.00576252 0)
(0.131551 -0.00562517 0)
(0.132015 -0.00546576 0)
(0.132469 -0.00528273 0)
(0.132913 -0.00507451 0)
(0.133348 -0.00483949 0)
(0.133777 -0.00457607 0)
(0.1342 -0.00428273 0)
(0.134621 -0.00395806 0)
(0.135042 -0.00360084 0)
(0.135466 -0.00321008 0)
(0.135897 -0.00278521 0)
(0.136338 -0.00232607 0)
(0.136793 -0.00183308 0)
(0.137268 -0.00130731 0)
(0.137767 -0.000750394 0)
(0.138296 -0.000164475 0)
(0.138858 0.000446828 0)
(0.139457 0.00107724 0)
(0.140097 0.00172065 0)
(0.140779 0.00237016 0)
(0.141505 0.00301823 0)
(0.142274 0.00365682 0)
(0.143086 0.00427783 0)
(0.143935 0.00487377 0)
(0.144818 0.00543863 0)
(0.0999969 -0.000286539 0)
(0.100095 -0.000582058 0)
(0.100246 -0.000852052 0)
(0.100446 -0.00110381 0)
(0.100693 -0.00134109 0)
(0.100983 -0.00156617 0)
(0.101313 -0.001781 0)
(0.101678 -0.00198724 0)
(0.102076 -0.00218621 0)
(0.102504 -0.00237897 0)
(0.102959 -0.00256639 0)
(0.103439 -0.00274917 0)
(0.103941 -0.00292787 0)
(0.104465 -0.00310296 0)
(0.105007 -0.0032748 0)
(0.105567 -0.00344366 0)
(0.106142 -0.00360978 0)
(0.106732 -0.00377329 0)
(0.107335 -0.00393429 0)
(0.10795 -0.00409284 0)
(0.108575 -0.00424895 0)
(0.109209 -0.00440256 0)
(0.109852 -0.00455363 0)
(0.110501 -0.00470205 0)
(0.111157 -0.0048477 0)
(0.111817 -0.00499041 0)
(0.112481 -0.00513002 0)
(0.113148 -0.00526634 0)
(0.113817 -0.00539915 0)
(0.114487 -0.00552822 0)
(0.115158 -0.00565331 0)
(0.115827 -0.00577417 0)
(0.116495 -0.00589053 0)
(0.11716 -0.00600211 0)
(0.117823 -0.0061086 0)
(0.118481 -0.00620969 0)
(0.119135 -0.00630506 0)
(0.119783 -0.00639435 0)
(0.120425 -0.0064772 0)
(0.12106 -0.0065532 0)
(0.121687 -0.00662193 0)
(0.122307 -0.00668294 0)
(0.122918 -0.00673574 0)
(0.12352 -0.00677979 0)
(0.124112 -0.00681453 0)
(0.124694 -0.00683935 0)
(0.125265 -0.00685358 0)
(0.125826 -0.0068565 0)
(0.126376 -0.00684736 0)
(0.126915 -0.00682532 0)
(0.127442 -0.00678952 0)
(0.127957 -0.00673901 0)
(0.128462 -0.0066728 0)
(0.128955 -0.00658985 0)
(0.129437 -0.00648906 0)
(0.129908 -0.00636929 0)
(0.13037 -0.00622939 0)
(0.130822 -0.00606815 0)
(0.131267 -0.0058844 0)
(0.131704 -0.00567697 0)
(0.132135 -0.00544474 0)
(0.132563 -0.00518671 0)
(0.132988 -0.00490196 0)
(0.133414 -0.00458981 0)
(0.133842 -0.00424977 0)
(0.134275 -0.00388168 0)
(0.134717 -0.00348577 0)
(0.13517 -0.00306269 0)
(0.135637 -0.0026136 0)
(0.136122 -0.00214025 0)
(0.136629 -0.00164492 0)
(0.13716 -0.00113042 0)
(0.137718 -0.000599978 0)
(0.138307 -5.67711e-05 0)
(0.138928 0.000493968 0)
(0.13958 0.00104577 0)
(0.140264 0.00159281 0)
(0.140979 0.00212947 0)
(0.141722 0.00265037 0)
(0.142491 0.00315082 0)
(0.143281 0.00362735 0)
(0.0999932 -0.000312611 0)
(0.10009 -0.000637052 0)
(0.100236 -0.000934432 0)
(0.100427 -0.00121215 0)
(0.100665 -0.00147417 0)
(0.100945 -0.00172291 0)
(0.101263 -0.00196039 0)
(0.101615 -0.00218835 0)
(0.102 -0.00240824 0)
(0.102413 -0.00262119 0)
(0.102852 -0.00282815 0)
(0.103316 -0.00302986 0)
(0.103801 -0.00322697 0)
(0.104307 -0.00341995 0)
(0.104831 -0.00360922 0)
(0.105372 -0.00379507 0)
(0.105928 -0.00397775 0)
(0.106498 -0.00415741 0)
(0.107079 -0.00433417 0)
(0.107672 -0.00450808 0)
(0.108275 -0.00467915 0)
(0.108887 -0.00484733 0)
(0.109506 -0.00501256 0)
(0.110131 -0.00517472 0)
(0.110762 -0.00533367 0)
(0.111397 -0.00548926 0)
(0.112035 -0.00564128 0)
(0.112676 -0.00578953 0)
(0.113318 -0.00593378 0)
(0.11396 -0.00607378 0)
(0.114603 -0.00620926 0)
(0.115244 -0.00633996 0)
(0.115883 -0.00646559 0)
(0.116519 -0.00658584 0)