/*--------------------------------*- C++ -*----------------------------------*\
| =========                 |                                                 |
| \\      /  F ield         | OpenFOAM: The Open Source CFD Toolbox           |
|  \\    /   O peration     | Version:  2106                                  |
|   \\  /    A nd           | Website:  www.openfoam.com                      |
|    \\/     M anipulation  |                                                 |
\*---------------------------------------------------------------------------*/
FoamFile
{
    version     2.0;
    format      ascii;
    arch        "LSB;label=32;scalar=64";
    class       surfaceScalarField;
    location    "4.8";
    object      phi;
}
// * * * * * * * * * * * * * * * * * * * * * * * * * * * * * * * * * * * * * //

dimensions      [1 0 -1 0 0 0 0];

oriented        oriented;

internalField   nonuniform List<scalar> 
23692
(
9.31715e-05
-9.2004e-08
9.33379e-05
-1.664e-07
9.35705e-05
-2.32508e-07
9.38611e-05
-2.90594e-07
9.42038e-05
-3.42534e-07
9.45934e-05
-3.89484e-07
9.50257e-05
-4.32203e-07
9.54972e-05
-4.71307e-07
9.60046e-05
-5.07269e-07
9.65453e-05
-5.40462e-07
9.71167e-05
-5.71188e-07
9.77166e-05
-5.99697e-07
9.83431e-05
-6.26202e-07
9.89942e-05
-6.50864e-07
9.96683e-05
-6.73839e-07
0.000100364
-6.9524e-07
0.000101079
-7.15174e-07
0.000101813
-7.33725e-07
0.000102565
-7.50969e-07
0.000103332
-7.66971e-07
0.000104114
-7.81779e-07
0.00010491
-7.95443e-07
0.000105718
-8.07998e-07
0.000106538
-8.19481e-07
0.000107368
-8.29916e-07
0.000108208
-8.39327e-07
0.000109056
-8.47735e-07
0.000109912
-8.55153e-07
0.000110774
-8.61597e-07
0.000111641
-8.67076e-07
0.000112513
-8.71597e-07
0.000113388
-8.75167e-07
0.000114267
-8.77788e-07
0.000115146
-8.79459e-07
0.000116027
-8.80183e-07
0.000116907
-8.79953e-07
0.000117786
-8.78765e-07
0.000118663
-8.7661e-07
0.000119537
-8.73478e-07
0.000120407
-8.69353e-07
0.000121271
-8.64222e-07
0.00012213
-8.58059e-07
0.000122981
-8.50842e-07
0.000123824
-8.42541e-07
0.000124657
-8.33121e-07
0.00012548
-8.22539e-07
0.000126291
-8.10746e-07
0.000127089
-7.97687e-07
0.000127872
-7.83291e-07
0.00012864
-7.67479e-07
0.00012939
-7.50159e-07
0.000130122
-7.3122e-07
0.000130832
-7.10532e-07
0.000131521
-6.87941e-07
0.000132184
-6.63266e-07
0.00013282
-6.36289e-07
0.000133427
-6.06751e-07
0.000134002
-5.74339e-07
0.000134541
-5.38678e-07
0.00013504
-4.99307e-07
0.000135496
-4.55663e-07
0.000135903
-4.07052e-07
0.000136256
-3.52607e-07
0.000136547
-2.91235e-07
0.000136769
-2.21546e-07
0.000136911
-1.4175e-07
0.00013696
-4.95135e-08
0.000136902
5.82783e-08
0.000136716
1.85911e-07
0.000136377
3.3933e-07
0.00013585
5.26961e-07
0.000135089
7.61047e-07
0.00013403
1.05987e-06
0.000132578
1.4515e-06
0.000130598
1.98034e-06
0.000127879
2.71853e-06
0.000124093
3.78604e-06
0.000118706
5.38777e-06
0.000110806
7.89962e-06
9.87175e-05
1.20886e-05
2.01418e-05
7.85757e-05
9.96951e-05
-1.88024e-07
9.98721e-05
-3.43458e-07
0.00010012
-4.8051e-07
0.00010043
-6.00711e-07
0.000100796
-7.0824e-07
0.000101212
-8.05416e-07
0.000101674
-8.93834e-07
0.000102178
-9.74759e-07
0.00010272
-1.04917e-06
0.000103297
-1.11785e-06
0.000103908
-1.18142e-06
0.000104549
-1.2404e-06
0.000105218
-1.29522e-06
0.000105914
-1.34624e-06
0.000106634
-1.39375e-06
0.000107377
-1.43801e-06
0.000108141
-1.47923e-06
0.000108926
-1.51759e-06
0.000109728
-1.55324e-06
0.000110548
-1.58631e-06
0.000111383
-1.61692e-06
0.000112233
-1.64515e-06
0.000113097
-1.67109e-06
0.000113973
-1.69481e-06
0.000114859
-1.71636e-06
0.000115756
-1.73578e-06
0.000116662
-1.75313e-06
0.000117576
-1.76844e-06
0.000118496
-1.78172e-06
0.000119423
-1.793e-06
0.000120354
-1.8023e-06
0.000121289
-1.80964e-06
0.000122226
-1.815e-06
0.000123165
-1.81841e-06
0.000124105
-1.81985e-06
0.000125045
-1.81931e-06
0.000125984
-1.8168e-06
0.00012692
-1.81228e-06
0.000127852
-1.80574e-06
0.00012878
-1.79715e-06
0.000129703
-1.78647e-06
0.000130619
-1.77366e-06
0.000131527
-1.75867e-06
0.000132426
-1.74145e-06
0.000133315
-1.7219e-06
0.000134193
-1.69996e-06
0.000135058
-1.67552e-06
0.000135909
-1.64846e-06
0.000136745
-1.61865e-06
0.000137563
-1.58591e-06
0.000138363
-1.55007e-06
0.000139143
-1.51089e-06
0.000139901
-1.46812e-06
0.000140635
-1.42143e-06
0.000141342
-1.37046e-06
0.000142021
-1.31476e-06
0.000142668
-1.25382e-06
0.000143281
-1.18699e-06
0.000143856
-1.11352e-06
0.000144389
-1.03248e-06
0.000144877
-9.4274e-07
0.000145313
-8.42906e-07
0.000145691
-7.31245e-07
0.000146006
-6.05588e-07
0.000146248
-4.63183e-07
0.000146406
-3.00505e-07
0.00014647
-1.12988e-07
0.000146423
1.05376e-07
0.000146246
3.6273e-07
0.000145915
6.70241e-07
0.000145399
1.04344e-06
0.000144656
1.50438e-06
0.000143631
2.08502e-06
0.00014225
2.8326e-06
0.000140412
3.81823e-06
0.00013798
5.15021e-06
0.000134773
6.99313e-06
0.000130568
9.5927e-06
0.00012516
1.33077e-05
0.000118681
1.85683e-05
2.51615e-05
0.000113661
0.000106675
-2.87493e-07
0.000106862
-5.3095e-07
0.000107126
-7.4382e-07
0.000107456
-9.30631e-07
0.000107845
-1.09767e-06
0.000108288
-1.24859e-06
0.000108781
-1.38588e-06
0.000109318
-1.51151e-06
0.000109896
-1.62701e-06
0.000110512
-1.7336e-06
0.000111163
-1.83225e-06
0.000111846
-1.92376e-06
0.00011256
-2.00881e-06
0.000113302
-2.08794e-06
0.00011407
-2.16162e-06
0.000114863
-2.23025e-06
0.000115678
-2.29415e-06
0.000116515
-2.3536e-06
0.000117371
-2.40885e-06
0.000118245
-2.46009e-06
0.000119136
-2.50749e-06
0.000120042
-2.55121e-06
0.000120963
-2.59136e-06
0.000121896
-2.62805e-06
0.000122842
-2.66138e-06
0.000123798
-2.69141e-06
0.000124763
-2.7182e-06
0.000125737
-2.74182e-06
0.000126718
-2.7623e-06
0.000127705
-2.77968e-06
0.000128697
-2.79397e-06
0.000129693
-2.8052e-06
0.000130692
-2.81338e-06
0.000131693
-2.81852e-06
0.000132694
-2.8206e-06
0.000133694
-2.81961e-06
0.000134693
-2.81555e-06
0.00013569
-2.80838e-06
0.000136683
-2.79808e-06
0.00013767
-2.78458e-06
0.000138652
-2.76786e-06
0.000139627
-2.74783e-06
0.000140593
-2.72442e-06
0.000141549
-2.69754e-06
0.000142495
-2.66707e-06
0.000143428
-2.63289e-06
0.000144348
-2.59484e-06
0.000145252
-2.55275e-06
0.00014614
-2.5064e-06
0.00014701
-2.45554e-06
0.00014786
-2.39989e-06
0.000148689
-2.3391e-06
0.000149493
-2.27277e-06
0.000150273
-2.20043e-06
0.000151024
-2.12152e-06
0.000151745
-2.03538e-06
0.000152432
-1.94121e-06
0.000153084
-1.83806e-06
0.000153695
-1.72481e-06
0.000154263
-1.60007e-06
0.000154782
-1.46216e-06
0.000155249
-1.30903e-06
0.000155656
-1.13815e-06
0.000155997
-9.46343e-07
0.000156263
-7.29649e-07
0.000156446
-4.83017e-07
0.000156533
-1.99988e-07
0.000156511
1.27795e-07
0.000156362
5.11385e-07
0.000156067
9.65635e-07
0.0001556
1.51066e-06
0.00015493
2.17401e-06
0.000154021
2.99392e-06
0.00015283
4.02383e-06
0.00015131
5.33865e-06
0.000149418
7.04245e-06
0.000147136
9.27496e-06
0.00014452
1.2209e-05
0.000141811
1.60161e-05
0.000139679
2.07008e-05
2.5529e-05
0.000139311
0.000114143
-3.90166e-07
0.00011434
-7.28398e-07
0.000114619
-1.02228e-06
0.000114969
-1.28047e-06
0.000115382
-1.51123e-06
0.000115853
-1.71964e-06
0.000116377
-1.90918e-06
0.000116948
-2.08258e-06
0.000117563
-2.24197e-06
0.000118219
-2.38902e-06
0.000118912
-2.5251e-06
0.00011964
-2.6513e-06
0.0001204
-2.76856e-06
0.00012119
-2.87764e-06
0.000122008
-2.97919e-06
0.000122852
-3.07374e-06
0.00012372
-3.16176e-06
0.00012461
-3.24363e-06
0.000125521
-3.31968e-06
0.000126452
-3.39019e-06
0.0001274
-3.4554e-06
0.000128365
-3.51551e-06
0.000129345
-3.57069e-06
0.000130338
-3.62109e-06
0.000131344
-3.66683e-06
0.000132361
-3.70802e-06
0.000133388
-3.74474e-06
0.000134424
-3.77707e-06
0.000135467
-3.80505e-06
0.000136516
-3.82875e-06
0.000137571
-3.84819e-06
0.00013863
-3.86341e-06
0.000139691
-3.8744e-06
0.000140754
-3.88118e-06
0.000141818
-3.88375e-06
0.000142881
-3.8821e-06
0.000143942
-3.87619e-06
0.000145
-3.86599e-06
0.000146054
-3.85147e-06
0.000147102
-3.83255e-06
0.000148144
-3.80917e-06
0.000149177
-3.78125e-06
0.000150202
-3.74867e-06
0.000151216
-3.71131e-06
0.000152218
-3.66902e-06
0.000153207
-3.62162e-06
0.000154182
-3.56892e-06
0.00015514
-3.51067e-06
0.000156081
-3.44658e-06
0.000157002
-3.37633e-06
0.000157902
-3.29953e-06
0.000158778
-3.21571e-06
0.00015963
-3.12435e-06
0.000160455
-3.02482e-06
0.00016125
-2.91638e-06
0.000162013
-2.79815e-06
0.000162741
-2.66908e-06
0.000163431
-2.52795e-06
0.00016408
-2.37325e-06
0.000164683
-2.20322e-06
0.000165237
-2.01568e-06
0.000165736
-1.80801e-06
0.000166175
-1.577e-06
0.000166547
-1.31866e-06
0.000166846
-1.02807e-06
0.000167062
-6.99044e-07
0.000167186
-3.23796e-07
0.000167207
1.07512e-07
0.00016711
6.07514e-07
0.000166884
1.19263e-06
0.00016651
1.88438e-06
0.000165973
2.71092e-06
0.000165258
3.70911e-06
0.000164355
4.92699e-06
0.000163268
6.42615e-06
0.000162027
8.28263e-06
0.00016072
1.05828e-05
0.000159523
1.3406e-05
0.000158764
1.67751e-05
0.000158931
2.05334e-05
2.40898e-05
0.000160371
0.000122133
-4.95925e-07
0.00012234
-9.35404e-07
0.000122634
-1.31566e-06
0.000123004
-1.65022e-06
0.000123442
-1.94916e-06
0.000123941
-2.21903e-06
0.000124497
-2.4644e-06
0.000125103
-2.68882e-06
0.000125756
-2.89504e-06
0.000126453
-3.08526e-06
0.000127189
-3.26121e-06
0.000127963
-3.42437e-06
0.00012877
-3.57592e-06
0.00012961
-3.71686e-06
0.000130479
-3.84802e-06
0.000131376
-3.97011e-06
0.000132298
-4.08371e-06
0.000133244
-4.18935e-06
0.000134212
-4.28743e-06
0.000135201
-4.37833e-06
0.000136208
-4.46234e-06
0.000137233
-4.53975e-06
0.000138274
-4.61076e-06
0.000139329
-4.67557e-06
0.000140397
-4.73435e-06
0.000141476
-4.78721e-06
0.000142566
-4.83429e-06
0.000143665
-4.87566e-06
0.000144772
-4.91142e-06
0.000145885
-4.94161e-06
0.000147004
-4.96629e-06
0.000148127
-4.98548e-06
0.000149252
-4.99922e-06
0.000150379
-5.0075e-06
0.000151506
-5.01032e-06
0.000152632
-5.00767e-06
0.000153755
-4.99953e-06
0.000154876
-4.98583e-06
0.000155991
-4.96654e-06
0.000157101
-4.94158e-06
0.000158203
-4.91086e-06
0.000159296
-4.87426e-06
0.000160379
-4.83167e-06
0.000161451
-4.78291e-06
0.000162511
-4.72781e-06
0.000163555
-4.66614e-06
0.000164585
-4.59766e-06
0.000165596
-4.52205e-06
0.000166589
-4.43898e-06
0.000167561
-4.34802e-06
0.00016851
-4.24869e-06
0.000169435
-4.14045e-06
0.000170334
-4.02261e-06
0.000171204
-3.89443e-06
0.000172043
-3.75498e-06
0.000172848
-3.60321e-06
0.000173617
-3.43784e-06
0.000174347
-3.2574e-06
0.000175034
-3.06011e-06
0.000175675
-2.84383e-06
0.000176265
-2.60605e-06
0.000176801
-2.34369e-06
0.000177277
-2.05304e-06
0.000177688
-1.7296e-06
0.000178028
-1.36785e-06
0.00017829
-9.61013e-07
0.000178467
-5.00707e-07
0.000178552
2.33309e-08
0.000178535
6.23881e-07
0.000178412
1.31661e-06
0.000178175
2.12148e-06
0.000177823
3.06302e-06
0.000177361
4.17123e-06
0.000176806
5.48185e-06
0.000176196
7.03574e-06
0.000175603
8.87575e-06
0.000175147
1.10386e-05
0.000175017
1.3537e-05
0.000175468
1.63235e-05
0.000176774
1.92272e-05
2.18642e-05
0.000179
0.000130683
-6.04767e-07
0.0001309
-1.15165e-06
0.000131208
-1.62373e-06
0.000131597
-2.03977e-06
0.00013206
-2.41154e-06
0.000132588
-2.74706e-06
0.000133176
-3.05204e-06
0.000133818
-3.33089e-06
0.000134511
-3.58705e-06
0.000135249
-3.82324e-06
0.00013603
-4.04167e-06
0.00013685
-4.24413e-06
0.000137706
-4.43213e-06
0.000138597
-4.60689e-06
0.000139518
-4.76947e-06
0.000140469
-4.92075e-06
0.000141448
-5.06145e-06
0.000142451
-5.19221e-06
0.000143478
-5.31356e-06
0.000144526
-5.42596e-06
0.000145594
-5.52978e-06
0.00014668
-5.62537e-06
0.000147782
-5.71299e-06
0.0001489
-5.79289e-06
0.000150032
-5.86526e-06
0.000151175
-5.93028e-06
0.000152329
-5.98809e-06
0.000153493
-6.0388e-06
0.000154665
-6.08251e-06
0.000155843
-6.11929e-06
0.000157026
-6.14922e-06
0.000158214
-6.17233e-06
0.000159404
-6.18864e-06
0.000160595
-6.19818e-06
0.000161786
-6.20093e-06
0.000162975
-6.19689e-06
0.000164162
-6.18601e-06
0.000165345
-6.16826e-06
0.000166523
-6.14356e-06
0.000167693
-6.11183e-06
0.000168856
-6.07297e-06
0.000170009
-6.02684e-06
0.000171151
-5.97329e-06
0.000172281
-5.91213e-06
0.000173396
-5.84315e-06
0.000174497
-5.76608e-06
0.00017558
-5.68063e-06
0.000176645
-5.58644e-06
0.000177689
-5.48309e-06
0.000178712
-5.37011e-06
0.00017971
-5.24693e-06
0.000180683
-5.1129e-06
0.000181628
-4.96725e-06
0.000182543
-4.80909e-06
0.000183425
-4.63739e-06
0.000184273
-4.45091e-06
0.000185084
-4.24824e-06
0.000185855
-4.02768e-06
0.000186582
-3.78727e-06
0.000187263
-3.52464e-06
0.000187894
-3.23702e-06
0.000188472
-2.92112e-06
0.000188992
-2.57298e-06
0.00018945
-2.18791e-06
0.000189843
-1.76024e-06
0.000190165
-1.28321e-06
0.000190413
-7.48672e-07
0.000190584
-1.4693e-07
0.000190674
5.33445e-07
0.000190685
1.30575e-06
0.000190621
2.186e-06
0.000190491
3.19262e-06
0.000190317
4.34609e-06
0.000190131
5.6681e-06
0.000189987
7.17933e-06
0.000189967
8.89544e-06
0.000190187
1.08196e-05
0.000190793
1.29302e-05
0.000191956
1.51614e-05
0.000193805
1.73776e-05
1.93518e-05
0.000196318
0.000139832
-7.16763e-07
0.000140057
-1.3769e-06
0.00014038
-1.94629e-06
0.000140789
-2.44897e-06
0.000141276
-2.89837e-06
0.000141833
-3.30389e-06
0.000142454
-3.6724e-06
0.000143132
-4.00925e-06
0.000143864
-4.31859e-06
0.000144645
-4.60371e-06
0.000145471
-4.86729e-06
0.000146339
-5.11151e-06
0.000147245
-5.33818e-06
0.000148187
-5.54881e-06
0.000149163
-5.74466e-06
0.000150169
-5.9268e-06
0.000151205
-6.09612e-06
0.000152266
-6.25339e-06
0.000153352
-6.39925e-06
0.000154461
-6.53426e-06
0.000155591
-6.65888e-06
0.000156739
-6.7735e-06
0.000157905
-6.87848e-06
0.000159087
-6.97409e-06
0.000160283
-7.06059e-06
0.000161492
-7.13818e-06
0.000162711
-7.20703e-06
0.00016394
-7.26729e-06
0.000165177
-7.31908e-06
0.000166421
-7.36248e-06
0.00016767
-7.39759e-06
0.000168922
-7.42445e-06
0.000170177
-7.4431e-06
0.000171433
-7.45355e-06
0.000172689
-7.45581e-06
0.000173942
-7.44987e-06
0.000175192
-7.43568e-06
0.000176438
-7.4132e-06
0.000177677
-7.38235e-06
0.000178909
-7.34304e-06
0.000180131
-7.29515e-06
0.000181344
-7.23853e-06
0.000182544
-7.17301e-06
0.00018373
-7.09838e-06
0.000184902
-7.01438e-06
0.000186057
-6.92074e-06
0.000187194
-6.8171e-06
0.000188311
-6.70307e-06
0.000189406
-6.57819e-06
0.000190479
-6.44191e-06
0.000191526
-6.29361e-06
0.000192546
-6.13257e-06
0.000193537
-5.95793e-06
0.000194496
-5.76873e-06
0.000195423
-5.56382e-06
0.000196314
-5.34189e-06
0.000197168
-5.1014e-06
0.000197981
-4.84056e-06
0.000198751
-4.55729e-06
0.000199476
-4.24916e-06
0.000200153
-3.91333e-06
0.000200778
-3.54647e-06
0.00020135
-3.1447e-06
0.000201866
-2.70348e-06
0.000202323
-2.2175e-06
0.000202721
-1.68058e-06
0.000203058
-1.08556e-06
0.000203335
-4.24222e-07
0.000203556
3.12654e-07
0.000203727
1.13489e-06
0.00020386
2.05338e-06
0.000203973
3.07963e-06
0.000204094
4.22476e-06
0.000204265
5.4981e-06
0.000204539
6.90499e-06
0.000204991
8.44342e-06
0.000205712
1.00991e-05
0.000206803
1.1839e-05
0.000208361
1.36033e-05
0.000210441
1.5298e-05
1.67957e-05
0.000212997
0.000149621
-8.32044e-07
0.000149855
-1.61098e-06
0.000150192
-2.28314e-06
0.000150621
-2.87764e-06
0.000151132
-3.40953e-06
0.000151718
-3.88951e-06
0.000152372
-4.32563e-06
0.000153087
-4.72417e-06
0.000153859
-5.09005e-06
0.000154682
-5.42716e-06
0.000155554
-5.73866e-06
0.00015647
-6.02716e-06
0.000157427
-6.29481e-06
0.000158422
-6.54338e-06
0.000159452
-6.7744e-06
0.000160515
-6.98912e-06
0.000161608
-7.1886e-06
0.000162729
-7.37376e-06
0.000163876
-7.54536e-06
0.000165046
-7.70407e-06
0.000166238
-7.85043e-06
0.00016745
-7.98492e-06
0.00016868
-8.10795e-06
0.000169926
-8.21986e-06
0.000171187
-8.32095e-06
0.000172461
-8.41146e-06
0.000173746
-8.4916e-06
0.000175041
-8.56155e-06
0.000176344
-8.62145e-06
0.000177654
-8.67142e-06
0.000178968
-8.71155e-06
0.000180286
-8.74191e-06
0.000181606
-8.76254e-06
0.000182927
-8.77348e-06
0.000184246
-8.77473e-06
0.000185563
-8.76628e-06
0.000186876
-8.7481e-06
0.000188183
-8.72013e-06
0.000189484
-8.6823e-06
0.000190776
-8.6345e-06
0.000192058
-8.57661e-06
0.000193328
-8.50848e-06
0.000194586
-8.4299e-06
0.000195828
-8.34066e-06
0.000197055
-8.24049e-06
0.000198264
-8.12906e-06
0.000199453
-8.00602e-06
0.000200621
-7.87093e-06
0.000201767
-7.7233e-06
0.000202888
-7.56255e-06
0.000203983
-7.38801e-06
0.000205049
-7.19891e-06
0.000206086
-6.99437e-06
0.000207091
-6.77336e-06
0.000208062
-6.53471e-06
0.000208998
-6.27707e-06
0.000209895
-5.99886e-06
0.000210753
-5.69832e-06
0.00021157
-5.37336e-06
0.000212343
-5.02163e-06
0.00021307
-4.64042e-06
0.00021375
-4.22663e-06
0.000214382
-3.7767e-06
0.000214966
-3.28663e-06
0.0002155
-2.75185e-06
0.000215987
-2.16728e-06
0.000216429
-1.52729e-06
0.000216831
-8.25729e-07
0.0002172
-5.61002e-08
0.000217547
7.88052e-07
0.000217888
1.71205e-06
0.000218247
2.72123e-06
0.000218653
3.81905e-06
0.000219145
5.00596e-06
0.000219772
6.27772e-06
0.000220592
7.6233e-06
0.000221669
9.02239e-06
0.000223066
1.04428e-05
0.000224831
1.18381e-05
0.000226981
1.31481e-05
1.43027e-05
0.000229474
0.000160096
-9.50758e-07
0.000160339
-1.85377e-06
0.00016069
-2.63411e-06
0.000161138
-3.32555e-06
0.000161673
-3.94482e-06
0.000162288
-4.5038e-06
0.000162974
-5.01167e-06
0.000163726
-5.4757e-06
0.000164538
-5.90156e-06
0.000165405
-6.29379e-06
0.000166323
-6.65607e-06
0.000167287
-6.99145e-06
0.000168295
-7.30241e-06
0.000169344
-7.59106e-06
0.000170429
-7.85916e-06
0.000171548
-8.10817e-06
0.0001727
-8.33936e-06
0.00017388
-8.55379e-06
0.000175088
-8.75235e-06
0.00017632
-8.93581e-06
0.000177575
-9.10483e-06
0.000178851
-9.25997e-06
0.000180145
-9.4017e-06
0.000181456
-9.53043e-06
0.000182782
-9.64651e-06
0.000184122
-9.75022e-06
0.000185473
-9.84182e-06
0.000186833
-9.92152e-06
0.000188202
-9.98948e-06
0.000189577
-1.00459e-05
0.000190957
-1.00907e-05
0.00019234
-1.01243e-05
0.000193724
-1.01464e-05
0.000195109
-1.01573e-05
0.000196491
-1.01569e-05
0.000197871
-1.01453e-05
0.000199246
-1.01223e-05
0.000200614
-1.0088e-05
0.000201975
-1.00423e-05
0.000203326
-9.98501e-06
0.000204666
-9.91609e-06
0.000205993
-9.83534e-06
0.000207306
-9.74258e-06
0.000208604
-9.63757e-06
0.000209884
-9.52004e-06
0.000211145
-9.38965e-06
0.000212385
-9.24602e-06
0.000213604
-9.08873e-06
0.000214798
-8.91724e-06
0.000215967
-8.73099e-06
0.000217108
-8.52928e-06
0.000218221
-8.31135e-06
0.000219304
-8.0763e-06
0.000220354
-7.82313e-06
0.00022137
-7.55068e-06
0.000222351
-7.25764e-06
0.000223295
-6.94252e-06
0.0002242
-6.60363e-06
0.000225066
-6.23907e-06
0.000225892
-5.84671e-06
0.000226676
-5.42414e-06
0.000227418
-4.96869e-06
0.000228119
-4.47743e-06
0.00022878
-3.94711e-06
0.000229402
-3.37427e-06
0.00022999
-2.75519e-06
0.000230549
-2.08606e-06
0.000231087
-1.36303e-06
0.000231613
-5.82445e-07
0.000232143
2.59014e-07
0.000232692
1.16274e-06
0.000233285
2.12869e-06
0.000233949
3.15506e-06
0.000234718
4.237e-06
0.00023563
5.36559e-06
0.000236727
6.52687e-06
0.000238048
7.70088e-06
0.00023963
8.86114e-06
0.000241494
9.97484e-06
0.000243637
1.10045e-05
1.19123e-05
0.000246028
0.000171304
-1.07305e-06
0.000171556
-2.10515e-06
0.000171921
-2.99903e-06
0.000172388
-3.79246e-06
0.000172947
-4.50397e-06
0.00017359
-5.14648e-06
0.000174309
-5.73031e-06
0.000175097
-6.26366e-06
0.000175949
-6.753e-06
0.000176859
-7.20355e-06
0.000177823
-7.61951e-06
0.000178836
-8.00438e-06
0.000179895
-8.36104e-06
0.000180997
-8.69191e-06
0.000182137
-8.99901e-06
0.000183314
-9.28406e-06
0.000184523
-9.54848e-06
0.000185764
-9.79352e-06
0.000187032
-1.00202e-05
0.000188326
-1.02295e-05
0.000189644
-1.0422e-05
0.000190983
-1.05985e-05
0.000192342
-1.07595e-05
0.000193718
-1.09055e-05
0.000195109
-1.10369e-05
0.000196513
-1.1154e-05
0.000197929
-1.12572e-05
0.000199355
-1.13466e-05
0.000200788
-1.14224e-05
0.000202228
-1.1485e-05
0.000203672
-1.15343e-05
0.000205119
-1.15705e-05
0.000206567
-1.15936e-05
0.000208014
-1.16038e-05
0.000209459
-1.16011e-05
0.0002109
-1.15855e-05
0.000212335
-1.15568e-05
0.000213763
-1.15153e-05
0.000215182
-1.14606e-05
0.00021659
-1.13928e-05
0.000217986
-1.13118e-05
0.000219369
-1.12173e-05
0.000220736
-1.11092e-05
0.000222086
-1.09873e-05
0.000223418
-1.08512e-05
0.00022473
-1.07007e-05
0.000226019
-1.05354e-05
0.000227286
-1.03549e-05
0.000228528
-1.01586e-05
0.000229743
-9.946e-06
0.000230931
-9.71646e-06
0.000232089
-9.46923e-06
0.000233217
-9.20347e-06
0.000234312
-8.91824e-06
0.000235374
-8.61247e-06
0.000236402
-8.28498e-06
0.000237394
-7.93444e-06
0.00023835
-7.55939e-06
0.00023927
-7.1582e-06
0.000240152
-6.72909e-06
0.000240999
-6.27016e-06
0.00024181
-5.77933e-06
0.000242587
-5.25442e-06
0.000243333
-4.69319e-06
0.000244053
-4.09336e-06
0.00024475
-3.45274e-06
0.000245434
-2.76932e-06
0.000246112
-2.04144e-06
0.000246798
-1.26797e-06
0.000247506
-4.48361e-07
0.000248252
4.16547e-07
0.000249057
1.32339e-06
0.000249946
2.26688e-06
0.000250943
3.23973e-06
0.000252077
4.23174e-06
0.000253375
5.22946e-06
0.00025486
6.21609e-06
0.000256549
7.1718e-06
0.00025845
8.0745e-06
0.000260553
8.90152e-06
9.63242e-06
0.000262833
0.000183297
-1.19904e-06
0.000183557
-2.36502e-06
0.000183936
-3.37767e-06
0.000184422
-4.27807e-06
0.000185005
-5.08659e-06
0.000185676
-5.81716e-06
0.000186427
-6.48112e-06
0.000187251
-7.08763e-06
0.000188142
-7.64399e-06
0.000189095
-8.15605e-06
0.000190105
-8.62861e-06
0.000191166
-9.06561e-06
0.000192276
-9.47035e-06
0.00019343
-9.84557e-06
0.000194626
-1.01936e-05
0.000195858
-1.05164e-05
0.000197126
-1.08155e-05
0.000198426
-1.10925e-05
0.000199754
-1.13485e-05
0.00020111
-1.15844e-05
0.00020249
-1.18013e-05
0.000203892
-1.19998e-05
0.000205314
-1.21806e-05
0.000206753
-1.23443e-05
0.000208208
-1.24912e-05
0.000209677
-1.26218e-05
0.000211157
-1.27365e-05
0.000212646
-1.28354e-05
0.000214144
-1.2919e-05
0.000215647
-1.29873e-05
0.000217154
-1.30405e-05
0.000218663
-1.30789e-05
0.000220172
-1.31024e-05
0.00022168
-1.31112e-05
0.000223185
-1.31053e-05
0.000224685
-1.30847e-05
0.000226178
-1.30495e-05
0.000227663
-1.29996e-05
0.000229138
-1.2935e-05
0.000230602
-1.28556e-05
0.000232052
-1.27613e-05
0.000233487
-1.26519e-05
0.000234906
-1.25273e-05
0.000236306
-1.23873e-05
0.000237687
-1.22317e-05
0.000239047
-1.206e-05
0.000240384
-1.18721e-05
0.000241698
-1.16674e-05
0.000242985
-1.14456e-05
0.000244246
-1.12061e-05
0.000245478
-1.09484e-05
0.000246681
-1.06718e-05
0.000247854
-1.03756e-05
0.000248995
-1.00589e-05
0.000250103
-9.72082e-06
0.000251179
-9.36045e-06
0.000252222
-8.97669e-06
0.000253231
-8.56836e-06
0.000254208
-8.13424e-06
0.000255152
-7.67304e-06
0.000256065
-7.18341e-06
0.00025695
-6.664e-06
0.00025781
-6.11349e-06
0.000258647
-5.53065e-06
0.000259469
-4.91443e-06
0.00026028
-4.26403e-06
0.00026109
-3.57905e-06
0.000261909
-2.85965e-06
0.000262748
-2.10667e-06
0.000263621
-1.32175e-06
0.000264545
-5.07305e-07
0.000265536
3.32608e-07
0.000266612
1.19148e-06
0.000267791
2.06064e-06
0.000269092
2.93071e-06
0.000270532
3.79021e-06
0.000272122
4.6262e-06
0.000273869
5.42465e-06
0.000275772
6.17121e-06
0.000277822
6.85238e-06
7.45727e-06
0.000279997
0.00019613
-1.3288e-06
0.000196398
-2.63325e-06
0.000196791
-3.76975e-06
0.000197295
-4.78195e-06
0.0001979
-5.69216e-06
0.000198599
-6.51521e-06
0.000199381
-7.26343e-06
0.000200241
-7.94691e-06
0.000201171
-8.57377e-06
0.000202166
-9.15054e-06
0.00020322
-9.68258e-06
0.00020433
-1.01743e-05
0.000205489
-1.06295e-05
0.000206696
-1.10512e-05
0.000207945
-1.1442e-05
0.000209233
-1.18041e-05
0.000210557
-1.21395e-05
0.000211915
-1.24496e-05
0.000213303
-1.27359e-05
0.000214719
-1.29995e-05
0.00021616
-1.32415e-05
0.000217623
-1.34626e-05
0.000219107
-1.36636e-05
0.000220609
-1.38451e-05
0.000222126
-1.40076e-05
0.000223657
-1.41518e-05
0.000225199
-1.42778e-05
0.00022675
-1.43861e-05
0.000228309
-1.44769e-05
0.000229873
-1.45505e-05
0.00023144
-1.46072e-05
0.000233009
-1.4647e-05
0.000234578
-1.46701e-05
0.000236144
-1.46766e-05
0.000237706
-1.46666e-05
0.000239262
-1.46402e-05
0.000240811
-1.45974e-05
0.00024235
-1.45381e-05
0.000243878
-1.44625e-05
0.000245393
-1.43703e-05
0.000246894
-1.42616e-05
0.000248379
-1.41362e-05
0.000249847
-1.3994e-05
0.000251295
-1.38349e-05
0.000252722
-1.36586e-05
0.000254128
-1.34649e-05
0.00025551
-1.32535e-05
0.000256867
-1.30241e-05
0.000258198
-1.27763e-05
0.000259502
-1.25097e-05
0.000260778
-1.22238e-05
0.000262025
-1.19181e-05
0.000263242
-1.1592e-05
0.000264428
-1.1245e-05
0.000265584
-1.08762e-05
0.000266709
-1.04851e-05
0.000267804
-1.00709e-05
0.000268869
-9.63278e-06
0.000269905
-9.16998e-06
0.000270914
-8.68176e-06
0.000271898
-8.1674e-06
0.000272861
-7.6263e-06
0.000273806
-7.05797e-06
0.000274737
-6.46216e-06
0.000275662
-5.83888e-06
0.000276587
-5.18852e-06
0.00027752
-4.51194e-06
0.000278471
-3.81059e-06
0.000279451
-3.08663e-06
0.000280473
-2.34299e-06
0.000281549
-1.58339e-06
0.000282694
-8.12181e-07
0.00028392
-3.45994e-08
0.00028524
7.41509e-07
0.000286663
1.50778e-06
0.000288199
2.25446e-06
0.000289853
2.97242e-06
0.000291625
3.65207e-06
0.000293513
4.28424e-06
0.000295504
4.86105e-06
5.3769e-06
0.000297585
0.000209861
-1.46233e-06
0.000210138
-2.90962e-06
0.000210543
-4.17483e-06
0.000211065
-5.30355e-06
0.000211693
-6.31994e-06
0.000212418
-7.23979e-06
0.000213231
-8.07629e-06
0.000214125
-8.84047e-06
0.000215093
-9.54124e-06
0.000216128
-1.01858e-05
0.000217226
-1.07802e-05
0.000218382
-1.13292e-05
0.00021959
-1.18371e-05
0.000220847
-1.23073e-05
0.000222148
-1.27426e-05
0.00022349
-1.31457e-05
0.00022487
-1.35186e-05
0.000226284
-1.38631e-05
0.00022773
-1.41807e-05
0.000229204
-1.44727e-05
0.000230703
-1.47403e-05
0.000232226
-1.49845e-05
0.000233769
-1.52059e-05
0.00023533
-1.54055e-05
0.000236907
-1.55837e-05
0.000238498
-1.57412e-05
0.000240099
-1.58784e-05
0.000241709
-1.59956e-05
0.000243327
-1.60933e-05
0.000244949
-1.61716e-05
0.000246573
-1.62309e-05
0.000248198
-1.62714e-05
0.000249822
-1.62933e-05
0.000251443
-1.62966e-05
0.000253059
-1.62816e-05
0.000254668
-1.62483e-05
0.000256268
-1.61967e-05
0.000257858
-1.6127e-05
0.000259435
-1.60391e-05
0.000260999
-1.59331e-05
0.000262547
-1.58089e-05
0.000264078
-1.56664e-05
0.00026559
-1.55056e-05
0.000267082
-1.53264e-05
0.000268553
-1.51286e-05
0.00027
-1.49121e-05
0.000271424
-1.46766e-05
0.000272823
-1.44221e-05
0.000274195
-1.41481e-05
0.00027554
-1.38544e-05
0.000276858
-1.35407e-05
0.000278147
-1.32066e-05
0.000279407
-1.28519e-05
0.000280639
-1.2476e-05
0.000281842
-1.20787e-05
0.000283017
-1.16595e-05
0.000284164
-1.1218e-05
0.000285286
-1.07539e-05
0.000286383
-1.02669e-05
0.000287459
-9.75687e-06
0.000288515
-9.22364e-06
0.000289557
-8.66733e-06
0.000290587
-8.0882e-06
0.000291612
-7.48682e-06
0.000292638
-6.86405e-06
0.000293671
-6.22117e-06
0.000294719
-5.55988e-06
0.000295791
-4.88245e-06
0.000296896
-4.19171e-06
0.000298045
-3.49111e-06
0.000299246
-2.78475e-06
0.000300511
-2.07726e-06
0.000301851
-1.37382e-06
0.000303272
-6.79399e-07
0.00030478
5.95689e-12
0.000306378
6.56696e-07
0.000308066
1.28416e-06
0.000309843
1.87551e-06
0.000311703
2.42481e-06
0.000313636
2.92773e-06
3.38156e-06
0.000315632
0.000224554
-1.59956e-06
0.000224838
-3.19382e-06
0.000225256
-4.59234e-06
0.000225794
-5.84208e-06
0.000226444
-6.96896e-06
0.000227194
-7.98972e-06
0.000228036
-8.91837e-06
0.000228963
-9.76683e-06
0.000229967
-1.05448e-05
0.000231042
-1.12602e-05
0.000232182
-1.19196e-05
0.000233381
-1.25283e-05
0.000234636
-1.30911e-05
0.000235941
-1.36117e-05
0.000237292
-1.40933e-05
0.000238686
-1.45388e-05
0.000240119
-1.49505e-05
0.000241587
-1.53303e-05
0.000243087
-1.56801e-05
0.000244616
-1.60012e-05
0.000246172
-1.62949e-05
0.000247751
-1.65624e-05
0.00024935
-1.68045e-05
0.000250968
-1.70222e-05
0.000252601
-1.7216e-05
0.000254247
-1.73865e-05
0.000255904
-1.75344e-05
0.000257569
-1.76601e-05
0.000259241
-1.7764e-05
0.000260916
-1.78464e-05
0.000262594
-1.79076e-05
0.000264271
-1.79479e-05
0.000265946
-1.79675e-05
0.000267617
-1.79667e-05
0.000269282
-1.79455e-05
0.000270939
-1.79042e-05
0.000272586
-1.78428e-05
0.000274221
-1.77615e-05
0.000275843
-1.76603e-05
0.00027745
-1.75393e-05
0.000279041
-1.73985e-05
0.000280613
-1.72379e-05
0.000282166
-1.70576e-05
0.000283697
-1.68574e-05
0.000285207
-1.66375e-05
0.000286693
-1.63976e-05
0.000288155
-1.61378e-05
0.000289591
-1.58579e-05
0.000291002
-1.55578e-05
0.000292386
-1.52375e-05
0.000293742
-1.48967e-05
0.000295072
-1.45355e-05
0.000296374
-1.41535e-05
0.000297649
-1.37508e-05
0.000298898
-1.33273e-05
0.000300122
-1.28828e-05
0.000301322
-1.24175e-05
0.0003025
-1.19314e-05
0.000303658
-1.14248e-05
0.0003048
-1.08978e-05
0.000305928
-1.03511e-05
0.000307046
-9.78527e-06
0.000308159
-9.20119e-06
0.000309273
-8.60006e-06
0.000310393
-7.98335e-06
0.000311525
-7.35288e-06
0.000312676
-6.71087e-06
0.000313854
-6.05994e-06
0.000315065
-5.40312e-06
0.000316319
-4.74389e-06
0.00031762
-4.08613e-06
0.000318977
-3.43404e-06
0.000320396
-2.79208e-06
0.000321881
-2.16484e-06
0.000323439
-1.55691e-06
0.000325068
-9.72167e-07
0.000326767
-4.14998e-07
0.000328532
1.10416e-07
0.000330357
6.00172e-07
0.000332234
1.05149e-06
1.46311e-06
0.000334152
0.000240274
-1.74033e-06
0.000240566
-3.48539e-06
0.000240995
-5.02149e-06
0.00024155
-6.39647e-06
0.000242219
-7.63789e-06
0.000242993
-8.76343e-06
0.000243863
-9.78788e-06
0.000244821
-1.0724e-05
0.000245859
-1.15823e-05
0.00024697
-1.23713e-05
0.00024815
-1.30982e-05
0.000249391
-1.3769e-05
0.000250689
-1.43887e-05
0.000252039
-1.49614e-05
0.000253438
-1.54909e-05
0.00025488
-1.59801e-05
0.000256362
-1.64316e-05
0.00025788
-1.68477e-05
0.000259431
-1.72303e-05
0.000261012
-1.7581e-05
0.000262619
-1.79012e-05
0.000264249
-1.81922e-05
0.000265901
-1.8455e-05
0.00026757
-1.86905e-05
0.000269255
-1.88996e-05
0.000270952
-1.90829e-05
0.000272659
-1.9241e-05
0.000274375
-1.93745e-05
0.000276096
-1.94838e-05
0.00027782
-1.95694e-05
0.000279544
-1.96316e-05
0.000281268
-1.96708e-05
0.000282989
-1.96871e-05
0.000284704
-1.9681e-05
0.000286412
-1.96526e-05
0.000288111
-1.96022e-05
0.000289799
-1.95298e-05
0.000291474
-1.94358e-05
0.000293135
-1.93202e-05
0.00029478
-1.91831e-05
0.000296407
-1.90247e-05
0.000298015
-1.88452e-05
0.000299602
-1.86445e-05
0.000301169
-1.84228e-05
0.000302712
-1.81802e-05
0.000304232
-1.79166e-05