/*--------------------------------*- C++ -*----------------------------------*\
| =========                 |                                                 |
| \\      /  F ield         | OpenFOAM: The Open Source CFD Toolbox           |
|  \\    /   O peration     | Version:  2106                                  |
|   \\  /    A nd           | Website:  www.openfoam.com                      |
|    \\/     M anipulation  |                                                 |
\*---------------------------------------------------------------------------*/
FoamFile
{
    version     2.0;
    format      ascii;
    arch        "LSB;label=32;scalar=64";
    class       volScalarField;
    location    "4.8";
    object      T;
}
// * * * * * * * * * * * * * * * * * * * * * * * * * * * * * * * * * * * * * //

dimensions      [0 0 0 1 0 0 0];

internalField   nonuniform List<scalar> 
12013
(
300.003
300.009
300.016
300.022
300.029
300.037
300.044
300.052
300.061
300.07
300.079
300.088
300.098
300.108
300.119
300.13
300.142
300.154
300.166
300.18
300.193
300.207
300.222
300.237
300.253
300.269
300.286
300.303
300.321
300.34
300.359
300.379
300.4
300.421
300.443
300.466
300.489
300.513
300.538
300.564
300.59
300.617
300.645
300.674
300.704
300.734
300.766
300.798
300.831
300.865
300.901
300.937
300.974
301.012
301.052
301.092
301.134
301.177
301.221
301.267
301.314
301.362
301.412
301.463
301.516
301.571
301.628
301.687
301.748
301.811
301.878
301.947
302.019
302.095
302.175
302.26
302.351
302.45
302.56
302.684
302.831
300.003
300.009
300.016
300.022
300.029
300.037
300.044
300.052
300.061
300.07
300.079
300.088
300.098
300.108
300.119
300.13
300.142
300.154
300.166
300.18
300.193
300.207
300.222
300.237
300.253
300.269
300.286
300.303
300.321
300.34
300.359
300.379
300.4
300.421
300.443
300.466
300.489
300.513
300.538
300.564
300.59
300.617
300.645
300.674
300.704
300.734
300.766
300.798
300.831
300.865
300.9
300.937
300.974
301.012
301.051
301.092
301.134
301.177
301.221
301.266
301.313
301.361
301.411
301.463
301.516
301.57
301.627
301.686
301.747
301.81
301.876
301.945
302.016
302.092
302.171
302.255
302.345
302.442
302.547
302.662
302.789
300.003
300.009
300.016
300.022
300.029
300.037
300.044
300.052
300.061
300.07
300.079
300.088
300.098
300.108
300.119
300.13
300.142
300.154
300.166
300.18
300.193
300.207
300.222
300.237
300.253
300.269
300.286
300.303
300.321
300.34
300.359
300.379
300.4
300.421
300.443
300.466
300.489
300.513
300.538
300.563
300.59
300.617
300.645
300.674
300.703
300.734
300.765
300.798
300.831
300.865
300.9
300.936
300.973
301.012
301.051
301.091
301.133
301.176
301.22
301.265
301.312
301.36
301.41
301.461
301.514
301.569
301.625
301.683
301.744
301.807
301.872
301.94
302.011
302.085
302.163
302.246
302.332
302.425
302.523
302.626
302.735
300.003
300.009
300.016
300.022
300.029
300.037
300.044
300.052
300.061
300.07
300.079
300.088
300.098
300.108
300.119
300.13
300.142
300.154
300.166
300.179
300.193
300.207
300.222
300.237
300.253
300.269
300.286
300.303
300.321
300.34
300.359
300.379
300.4
300.421
300.443
300.465
300.489
300.513
300.538
300.563
300.59
300.617
300.645
300.673
300.703
300.734
300.765
300.797
300.83
300.864
300.899
300.936
300.973
301.011
301.05
301.09
301.132
301.175
301.219
301.264
301.31
301.358
301.408
301.459
301.511
301.566
301.622
301.68
301.739
301.802
301.866
301.933
302.003
302.075
302.151
302.23
302.313
302.4
302.49
302.583
302.677
300.003
300.009
300.016
300.022
300.029
300.037
300.044
300.052
300.061
300.07
300.079
300.088
300.098
300.108
300.119
300.13
300.142
300.154
300.166
300.179
300.193
300.207
300.222
300.237
300.252
300.269
300.286
300.303
300.321
300.34
300.359
300.379
300.399
300.421
300.443
300.465
300.489
300.513
300.537
300.563
300.589
300.616
300.644
300.673
300.703
300.733
300.764
300.796
300.83
300.864
300.899
300.935
300.972
301.01
301.049
301.089
301.13
301.173
301.217
301.262
301.308
301.356
301.405
301.455
301.507
301.561
301.617
301.674
301.733
301.794
301.857
301.923
301.991
302.061
302.134
302.21
302.288
302.369
302.451
302.535
302.618
300.003
300.009
300.016
300.022
300.029
300.037
300.044
300.052
300.061
300.069
300.079
300.088
300.098
300.108
300.119
300.13
300.142
300.154
300.166
300.179
300.193
300.207
300.222
300.237
300.252
300.269
300.285
300.303
300.321
300.34
300.359
300.379
300.399
300.42
300.442
300.465
300.488
300.512
300.537
300.563
300.589
300.616
300.644
300.672
300.702
300.732
300.763
300.795
300.828
300.862
300.897
300.933
300.97
301.008
301.047
301.087
301.128
301.17
301.214
301.259
301.305
301.352
301.4
301.451
301.502
301.555
301.61
301.666
301.724
301.784
301.846
301.91
301.975
302.043
302.113
302.184
302.258
302.332
302.408
302.483
302.558
300.003
300.009
300.016
300.022
300.029
300.037
300.044
300.052
300.061
300.069
300.079
300.088
300.098
300.108
300.119
300.13
300.142
300.154
300.166
300.179
300.193
300.207
300.221
300.237
300.252
300.268
300.285
300.303
300.321
300.339
300.359
300.378
300.399
300.42
300.442
300.465
300.488
300.512
300.536
300.562
300.588
300.615
300.643
300.671
300.701
300.731
300.762
300.794
300.827
300.861
300.896
300.931
300.968
301.006
301.044
301.084
301.125
301.167
301.21
301.255
301.3
301.347
301.395
301.444
301.495
301.547
301.601
301.656
301.713
301.771
301.831
301.893
301.956
302.021
302.087
302.154
302.223
302.292
302.361
302.43
302.498
300.003
300.009
300.016
300.022
300.029
300.037
300.044
300.052
300.061
300.069
300.078
300.088
300.098
300.108
300.119
300.13
300.142
300.154
300.166
300.179
300.193
300.207
300.221
300.236
300.252
300.268
300.285
300.302
300.32
300.339
300.358
300.378
300.399
300.42
300.441
300.464
300.487
300.511
300.536
300.561
300.587
300.614
300.642
300.67
300.7
300.73
300.761
300.793
300.825
300.859
300.894
300.929
300.966
301.003
301.041
301.081
301.121
301.163
301.206
301.249
301.294
301.341
301.388
301.437
301.487
301.538
301.59
301.644
301.699
301.756
301.814
301.873
301.933
301.995
302.057
302.121
302.185
302.249
302.312
302.376
302.437
300.003
300.009
300.016
300.022
300.029
300.037
300.044
300.052
300.061
300.069
300.078
300.088
300.098
300.108
300.119
300.13
300.141
300.153
300.166
300.179
300.192
300.207
300.221
300.236
300.252
300.268
300.285
300.302
300.32
300.339
300.358
300.378
300.398
300.419
300.441
300.463
300.486
300.51
300.535
300.56
300.586
300.613
300.641
300.669
300.698
300.728
300.759
300.791
300.823
300.857
300.891
300.926
300.962
300.999
301.038
301.077
301.117
301.158
301.2
301.243
301.287
301.333
301.379
301.427
301.476
301.526
301.577
301.629
301.683
301.737
301.793
301.85
301.907
301.965
302.024
302.084
302.143
302.202
302.261
302.319
302.376
300.003
300.009
300.016
300.022
300.029
300.037
300.044
300.052
300.061
300.069
300.078
300.088
300.098
300.108
300.119
300.13
300.141
300.153
300.166
300.179
300.192
300.206
300.221
300.236
300.251
300.268
300.284
300.302
300.32
300.338
300.357
300.377
300.397
300.418
300.44
300.462
300.486
300.509
300.534
300.559
300.585
300.612
300.639
300.667
300.696
300.726
300.757
300.788
300.821
300.854
300.888
300.923
300.958
300.995
301.033
301.071
301.111
301.151
301.193
301.236
301.279
301.324
301.369
301.416
301.463
301.512
301.561
301.612
301.663
301.716
301.769
301.823
301.878
301.933
301.988
302.043
302.099
302.154
302.209
302.262
302.315
300.003
300.009
300.016
300.022
300.029
300.037
300.044
300.052
300.061
300.069
300.078
300.088
300.098
300.108
300.118
300.13
300.141
300.153
300.166
300.179
300.192
300.206
300.22
300.236
300.251
300.267
300.284
300.301
300.319
300.337
300.357
300.376
300.397
300.418
300.439
300.461
300.484
300.508
300.532
300.558
300.583
300.61
300.637
300.665
300.694
300.724
300.754
300.785
300.817
300.85
300.884
300.918
300.954
300.99
301.027
301.065
301.104
301.144
301.185
301.226
301.269
301.312
301.357
301.402
301.448
301.495
301.543
301.592
301.641
301.691
301.742
301.793
301.845
301.897
301.949
302.001
302.052
302.104
302.154
302.204
302.253
300.003
300.009
300.016
300.022
300.029
300.037
300.044
300.052
300.06
300.069
300.078
300.088
300.097
300.108
300.118
300.129
300.141
300.153
300.165
300.178
300.192
300.206
300.22
300.235
300.251
300.267
300.283
300.301
300.318
300.337
300.356
300.375
300.396
300.416
300.438
300.46
300.483
300.507
300.531
300.556
300.581
300.608
300.635
300.663
300.691
300.721
300.751
300.782
300.813
300.846
300.879
300.913
300.948
300.984
301.02
301.058
301.096
301.135
301.175
301.216
301.257
301.299
301.343
301.387
301.431
301.477
301.523
301.569
301.617
301.664
301.712
301.761
301.81
301.858
301.907
301.956
302.004
302.051
302.099
302.145
302.19
300.003
300.009
300.016
300.022
300.029
300.037
300.044
300.052
300.06
300.069
300.078
300.087
300.097
300.107
300.118
300.129
300.141
300.153
300.165
300.178
300.191
300.205
300.22
300.235
300.25
300.266
300.283
300.3
300.318
300.336
300.355
300.374
300.394
300.415
300.437
300.459
300.481
300.505
300.529
300.554
300.579
300.605
300.632
300.66
300.688
300.717
300.747
300.777
300.808
300.84
300.873
300.907
300.941
300.976
301.012
301.049
301.086
301.124
301.163
301.203
301.243
301.284
301.326
301.369
301.412
301.455
301.499
301.544
301.589
301.634
301.68
301.726
301.772
301.817
301.863
301.908
301.953
301.998
302.042
302.085
302.127
300.003
300.009
300.016
300.022
300.029
300.036
300.044
300.052
300.06
300.069
300.078
300.087
300.097
300.107
300.118
300.129
300.14
300.152
300.165
300.177
300.191
300.205
300.219
300.234
300.249
300.265
300.282
300.299
300.317
300.335
300.354
300.373
300.393
300.414
300.435
300.457
300.479
300.503
300.526
300.551
300.576
300.602
300.629
300.656
300.684
300.713
300.742
300.772
300.803
300.834
300.867
300.9
300.933
300.968
301.003
301.039
301.075
301.112
301.15
301.189
301.228
301.267
301.308
301.349
301.39
301.432
301.474
301.516
301.559
301.602
301.645
301.688
301.731
301.774
301.817
301.859
301.901
301.943
301.984
302.024
302.063
300.003
300.009
300.016
300.022
300.029
300.036
300.044
300.052
300.06
300.069
300.078
300.087
300.097
300.107
300.118
300.128
300.14
300.152
300.164
300.177
300.19
300.204
300.218
300.233
300.249
300.264
300.281
300.298
300.315
300.334
300.352
300.372
300.391
300.412
300.433
300.455
300.477
300.5
300.524
300.548
300.573
300.598
300.625
300.652
300.679
300.707
300.736
300.766
300.796
300.827
300.859
300.891
300.924
300.958
300.992
301.027
301.062
301.098
301.135
301.172
301.21
301.248
301.287
301.326
301.366
301.406
301.446
301.486
301.526
301.567
301.608
301.648
301.689
301.729
301.769
301.809
301.848
301.886
301.925
301.962
301.999
300.003
300.009
300.015
300.022
300.029
300.036
300.044
300.052
300.06
300.069
300.077
300.087
300.097
300.107
300.117
300.128
300.139
300.151
300.164
300.176
300.19
300.203
300.218
300.232
300.248
300.263
300.28
300.297
300.314
300.332
300.351
300.37
300.389
300.41
300.431
300.452
300.474
300.497
300.52
300.544
300.569
300.594
300.62
300.647
300.674
300.702
300.73
300.759
300.789
300.819
300.85
300.881
300.914
300.946
300.98
301.013
301.048
301.083
301.118
301.154
301.19
301.227
301.264
301.302
301.339
301.377
301.415
301.453
301.492
301.53
301.568
301.606
301.644
301.682
301.719
301.756
301.793
301.829
301.865
301.9
301.934
300.003
300.009
300.015
300.022
300.029
300.036
300.044
300.052
300.06
300.068
300.077
300.086
300.096
300.106
300.117
300.128
300.139
300.151
300.163
300.176
300.189
300.203
300.217
300.231
300.246
300.262
300.278
300.295
300.312
300.33
300.349
300.368
300.387
300.407
300.428
300.449
300.471
300.494
300.517
300.54
300.564
300.589
300.615
300.641
300.667
300.695
300.723
300.751
300.78
300.81
300.84
300.87
300.902
300.933
300.966
300.998
301.032
301.065
301.099
301.134
301.169
301.204
301.239
301.275
301.311
301.347
301.383
301.419
301.455
301.491
301.527
301.563
301.598
301.633
301.668
301.703
301.737
301.771
301.804
301.837
301.869
300.003
300.009
300.015
300.022
300.029
300.036
300.044
300.051
300.06
300.068
300.077
300.086
300.096
300.106
300.116
300.127
300.138
300.15
300.162
300.175
300.188
300.201
300.216
300.23
300.245
300.261
300.277
300.293
300.31
300.328
300.346
300.365
300.384
300.404
300.425
300.446
300.467
300.489
300.512
300.535
300.559
300.584
300.609
300.634
300.66
300.687
300.714
300.742
300.77
300.799
300.828
300.858
300.888
300.919
300.95
300.982
301.014
301.046
301.079
301.112
301.145
301.178
301.212
301.246
301.28
301.314
301.348
301.382
301.416
301.45
301.484
301.517
301.55
301.583
301.616
301.648
301.68
301.712
301.743
301.773
301.803
300.003
300.009
300.015
300.022
300.029
300.036
300.043
300.051
300.059
300.068
300.077
300.086
300.095
300.105
300.116
300.126
300.138
300.149
300.161
300.174
300.187
300.2
300.214
300.229
300.244
300.259
300.275
300.291
300.308
300.326
300.344
300.362
300.381
300.401
300.421
300.442
300.463
300.485
300.507
300.53
300.553
300.577
300.602
300.627
300.652
300.678
300.705
300.732
300.759
300.787
300.815
300.844
300.873
300.903
300.933
300.963
300.994
301.025
301.056
301.088
301.119
301.151
301.183
301.215
301.247
301.279
301.311
301.343
301.375
301.407
301.439
301.47
301.501
301.532
301.563
301.593
301.623
301.652
301.681
301.709
301.738
300.003
300.009
300.015
300.022
300.029
300.036
300.043
300.051
300.059
300.067
300.076
300.085
300.095
300.105
300.115
300.126
300.137
300.148
300.16
300.173
300.186
300.199
300.213
300.227
300.242
300.257
300.273
300.289
300.306
300.323
300.341
300.359
300.378
300.397
300.417
300.437
300.458
300.479
300.501
300.524
300.546
300.57
300.594
300.618
300.643
300.668
300.694
300.72
300.747
300.774
300.801
300.829
300.857
300.885
300.914
300.943
300.972
301.002
301.032
301.062
301.092
301.122
301.152
301.182
301.213
301.243
301.273
301.303
301.333
301.363
301.393
301.422
301.451
301.48
301.508
301.536
301.564
301.592
301.619
301.645
301.672
300.003
300.009
300.015
300.022
300.028
300.035
300.043
300.051
300.059
300.067
300.076
300.085
300.094
300.104
300.114
300.125
300.136
300.147
300.159
300.171
300.184
300.197
300.211
300.225
300.24
300.255
300.27
300.286
300.303
300.32
300.337
300.355
300.374
300.393
300.412
300.432
300.452
300.473
300.495
300.516
300.539
300.561
300.585
300.608
300.632
300.657
300.682
300.707
300.733
300.759
300.785
300.812
300.839
300.866
300.894
300.921
300.949
300.977
301.006
301.034
301.062
301.091
301.119
301.148
301.176
301.205
301.233
301.261
301.29
301.317
301.345
301.373
301.4
301.427
301.453
301.48
301.505
301.531
301.556
301.581
301.606
300.003
300.009
300.015
300.021
300.028
300.035
300.043
300.05
300.058
300.066
300.075
300.084
300.093
300.103
300.113
300.124
300.135
300.146
300.158
300.17
300.183
300.196
300.209
300.223
300.237
300.252
300.267
300.283
300.299
300.316
300.333
300.351
300.369
300.388
300.407
300.426
300.446
300.466
300.487
300.508
300.53
300.552
300.575
300.598
300.621
300.645
300.669
300.693
300.718
300.743
300.768
300.793
300.819
300.845
300.871
300.898
300.924
300.951
300.978
301.005
301.032
301.058
301.085
301.112
301.139
301.166
301.192
301.219
301.245
301.271
301.297
301.322
301.348
301.373
301.398
301.422
301.446
301.47
301.494
301.517
301.54
300.003
300.009
300.015
300.021
300.028
300.035
300.042
300.05
300.058
300.066
300.074
300.083
300.093
300.102
300.112
300.123
300.133
300.145
300.156
300.168
300.181
300.193
300.207
300.22
300.235
300.249
300.264
300.28
300.296
300.312
300.329
300.346
300.364
300.382
300.4
300.419
300.439
300.459
300.479
300.5
300.521
300.542
300.564
300.586
300.608
300.631
300.654
300.678
300.701
300.725
300.749
300.774
300.798
300.823
300.848
300.873
300.898
300.923
300.949
300.974
300.999
301.024
301.05
301.075
301.1
301.125
301.15
301.175
301.199
301.223
301.248
301.271
301.295
301.318
301.342
301.364
301.387
301.409
301.431
301.453
301.474
300.003
300.009
300.015
300.021
300.028
300.035
300.042
300.049
300.057
300.065
300.074
300.082
300.092
300.101
300.111
300.121
300.132
300.143
300.154
300.166
300.178
300.191
300.204
300.218
300.232
300.246
300.261
300.276
300.291
300.307
300.324
300.341
300.358
300.376
300.394
300.412
300.431
300.45
300.47
300.49
300.51
300.531
300.552
300.573
300.594
300.616
300.638
300.661
300.683
300.706
300.729
300.752
300.776
300.799
300.823
300.847
300.87
300.894
300.918
300.942
300.965
300.989
301.013
301.036
301.06
301.083
301.107
301.13
301.153
301.175
301.198
301.22
301.242
301.264
301.285
301.307
301.328
301.348
301.369
301.389
301.409
300.003
300.009
300.015
300.021
300.027
300.034
300.041
300.049
300.056
300.064
300.073
300.082
300.091
300.1
300.11
300.12
300.13
300.141
300.152
300.164
300.176
300.188
300.201
300.214
300.228
300.242
300.257
300.271
300.287
300.302
300.318
300.335
300.351
300.368
300.386
300.404
300.422
300.441
300.46
300.479
300.498
300.518
300.538
300.559
300.579
300.6
300.622
300.643
300.664
300.686
300.708
300.73
300.752
300.774
300.797
300.819
300.841
300.864
300.886
300.908
300.931
300.953
300.975
300.997
301.019
301.041
301.063
301.084
301.105
301.127
301.148
301.168
301.189
301.209
301.229
301.249
301.268
301.288
301.307
301.325
301.344
300.003
300.008
300.014
300.021
300.027
300.034
300.041
300.048
300.056
300.064
300.072
300.08
300.089
300.099
300.108
300.118
300.128
300.139
300.15
300.162
300.173
300.185
300.198
300.211
300.224
300.238
300.252
300.266
300.281
300.296
300.312
300.328
300.344
300.361
300.378
300.395
300.413
300.43
300.449
300.467
300.486
300.505
300.524
300.544
300.563
300.583
300.603
300.624
300.644
300.665
300.686
300.706
300.727
300.748
300.769
300.79
300.811
300.832
300.853
300.874
300.895
300.916
300.936
300.957
300.978
300.998
301.018
301.038
301.058
301.078
301.097
301.116
301.135
301.154
301.173
301.191
301.209
301.227
301.245
301.262
301.279
300.003
300.008
300.014
300.02
300.027
300.033
300.04
300.047
300.055
300.063
300.071
300.079
300.088
300.097
300.106
300.116
300.126
300.137
300.148
300.159
300.17
300.182
300.194
300.207
300.22
300.233
300.247
300.261
300.275
300.29
300.305
300.321
300.336
300.352
300.369
300.385
300.402
300.419
300.437
300.454
300.472
300.491
300.509
300.528
300.546
300.565
300.584
300.604
300.623
300.642
300.662
300.682
300.701
300.721
300.741
300.76
300.78
300.8
300.819
300.839
300.859
300.878
300.897
300.917
300.936
300.955
300.973
300.992
301.01
301.029
301.047
301.065
301.082
301.1
301.117
301.134
301.151
301.168
301.184
301.2
301.216
300.003
300.008
300.014
300.02
300.026
300.033
300.04
300.047
300.054
300.062
300.07
300.078
300.086
300.095
300.105
300.114
300.124
300.134
300.145
300.156
300.167
300.179
300.19
300.203
300.215
300.228
300.241
300.255
300.269
300.283
300.298
300.313
300.328
300.343
300.359
300.375
300.391
300.407
300.424
300.441
300.458
300.475
300.493
300.511
300.528
300.546
300.564
300.583
300.601
300.619
300.638
300.656
300.675
300.693
300.712
300.73
300.748
300.767
300.785
300.804
300.822
300.84
300.858
300.876
300.893
300.911
300.929
300.946
300.963
300.98
300.997
301.013
301.03
301.046
301.062
301.078
301.094
301.109
301.124
301.139
301.154
300.003
300.008
300.014
300.02
300.026
300.032
300.039
300.046
300.053
300.061
300.068
300.076
300.085
300.094
300.103
300.112
300.122
300.131
300.142
300.152
300.163
300.175
300.186
300.198
300.21
300.223
300.236
300.249
300.262
300.276
300.29
300.304
300.319
300.333
300.348
300.364
300.379
300.395
300.411
300.427
300.443
300.46
300.476
300.493
300.51
300.527
300.544
300.561
300.578
300.595
300.613
300.63
300.647
300.665
300.682
300.699
300.716
300.734
300.751
300.768
300.785
300.801
300.818
300.835
300.851
300.868
300.884
300.9
300.916
300.932
300.947
300.963
300.978
300.993
301.008
301.022
301.037
301.051
301.065
301.079
301.093
300.003
300.008
300.013
300.019
300.025
300.032
300.038
300.045
300.052
300.059
300.067
300.075
300.083
300.091
300.1
300.109
300.119
300.128
300.138
300.149
300.159
300.17
300.181
300.193
300.205
300.217
300.229
300.242
300.255
300.268
300.281
300.295
300.309
300.323
300.337
300.352
300.367
300.382
300.397
300.412
300.427
300.443
300.459
300.474
300.49
300.506
300.522
300.538
300.555
300.571
300.587
300.603
300.619
300.636
300.652
300.668
300.684
300.7
300.716
300.732
300.748
300.763
300.779
300.794
300.81
300.825
300.84
300.855
300.869
300.884
300.898
300.913
300.927
300.941
300.955
300.968
300.982
300.995
301.008
301.021
301.033
300.003
300.008
300.013
300.019
300.025
300.031
300.037
300.044
300.051
300.058
300.065
300.073
300.081
300.089
300.098
300.107
300.116
300.125
300.135
300.145
300.155
300.166
300.176
300.188
300.199
300.211
300.222
300.235
300.247
300.26
300.272
300.285
300.299
300.312
300.326
300.34
300.354
300.368
300.382
300.397
300.411
300.426
300.441
300.456
300.471
300.486
300.501
300.516
300.531
300.546
300.561
300.576
300.592
300.607
300.622
300.637
300.652
300.667
300.681
300.696
300.711
300.725
300.74
300.754
300.768
300.782
300.796
300.81
300.824
300.837
300.851
300.864
300.877
300.89
300.903
300.915
300.928
300.94
300.952
300.964
300.976
300.002
300.008
300.013
300.018
300.024
300.03
300.036
300.043
300.05
300.056
300.064
300.071
300.079
300.087
300.095
300.104
300.113
300.122
300.131
300.141
300.151
300.161
300.171
300.182
300.193
300.204
300.215
300.227
300.239
300.251
300.263
300.275
300.288
300.301
300.314
300.327
300.34
300.354
300.367
300.381
300.395
300.409
300.422
300.436
300.451
300.465
300.479
300.493
300.507
300.521
300.535
300.55
300.564
300.578
300.592
300.606
300.62
300.634
300.647
300.661
300.675
300.688
300.702
300.715
300.728
300.741
300.754
300.767
300.779
300.792
300.804
300.817
300.829
300.841
300.852
300.864
300.876
300.887
300.898
300.909
300.92
300.002
300.007
300.013
300.018
300.024
300.029
300.035
300.042
300.048
300.055
300.062
300.069
300.077
300.085
300.093
300.101
300.109
300.118
300.127
300.136
300.146
300.156
300.166
300.176
300.186
300.197
300.208
300.219
300.23
300.242
300.254
300.265
300.277
300.29
300.302
300.314
300.327
300.34
300.352
300.365
300.378
300.391
300.404
300.417
300.431
300.444
300.457
300.47
300.484
300.497
300.51
300.523
300.536
300.55
300.563
300.576
300.589
300.601
300.614
300.627
300.64
300.652
300.665
300.677
300.689
300.701
300.713
300.725
300.737
300.748
300.76
300.771
300.782
300.793
300.804
300.815
300.826
300.836
300.846
300.857
300.867
300.002
300.007
300.012
300.017
300.023
300.029
300.034
300.041
300.047
300.053
300.06
300.067
300.074
300.082
300.09
300.098
300.106
300.114
300.123
300.132
300.141
300.151
300.16
300.17
300.18
300.19
300.201
300.211
300.222
300.233
300.244
300.255
300.267
300.278
300.29
300.302
300.313
300.325
300.337
300.35
300.362
300.374
300.386
300.399
300.411
300.423
300.436
300.448
300.461
300.473
300.485
300.498
300.51
300.522
300.534
300.546
300.558
300.57
300.582
300.594
300.606
300.617
300.629
300.64
300.652
300.663
300.674
300.685
300.696
300.707
300.717
300.728
300.738
300.748
300.758
300.768
300.778
300.788
300.797
300.807
300.816
300.002
300.007
300.012
300.017
300.022
300.028
300.033
300.039
300.045
300.052
300.058
300.065
300.072
300.079
300.087
300.095
300.103
300.111
300.119
300.128
300.136
300.145
300.155
300.164
300.174
300.183
300.193
300.203
300.214
300.224
300.234
300.245
300.256
300.267
300.278
300.289
300.3
300.311
300.323
300.334
300.346
300.357
300.369
300.38
300.392
300.404
300.415
300.427
300.438
300.45
300.461
300.473
300.484
300.496
300.507
300.518
300.53
300.541
300.552
300.563
300.574
300.585
300.595
300.606
300.616
300.627
300.637
300.647
300.657
300.667
300.677
300.687
300.696
300.706
300.715
300.725
300.734
300.743
300.751
300.76
300.769
300.002
300.007
300.012
300.016
300.022
300.027
300.032
300.038
300.044
300.05
300.057
300.063
300.07
300.077
300.084
300.092
300.099
300.107
300.115
300.123
300.132
300.14
300.149
300.158
300.167
300.177
300.186
300.196
300.205
300.215
300.225
300.235
300.246
300.256
300.267
300.277
300.288
300.298
300.309
300.32
300.331
300.341
300.352
300.363
300.374
300.385
300.396
300.407
300.418
300.428
300.439
300.45
300.461
300.471
300.482
300.492
300.503
300.513
300.524
300.534
300.544
300.554
300.564
300.574
300.584
300.593
300.603
300.612
300.622
300.631
300.64
300.649
300.658
300.667
300.676
300.684
300.693
300.701
300.709
300.717
300.725
300.002
300.007
300.011
300.016
300.021
300.026
300.031
300.037
300.043
300.049
300.055
300.061
300.068
300.075
300.082
300.089
300.096
300.104
300.111
300.119
300.127
300.136
300.144
300.153
300.161
300.17
300.179
300.189
300.198
300.207
300.217
300.226
300.236
300.246
300.256
300.266
300.276
300.286
300.296
300.306
300.317
300.327
300.337
300.347
300.358
300.368
300.378
300.388
300.399
300.409
300.419
300.429
300.439
300.449
300.459
300.469
300.479
300.488
300.498
300.508
300.517
300.527
300.536
300.545
300.554
300.563
300.572
300.581
300.59
300.599
300.607
300.615
300.624
300.632
300.64
300.648
300.656
300.664
300.672
300.679
300.687
300.002
300.006
300.011
300.016
300.02
300.025
300.031
300.036
300.042
300.047
300.053
300.059
300.066
300.072
300.079
300.086
300.093
300.1
300.108
300.116
300.123
300.131
300.139
300.148
300.156
300.165
300.173
300.182
300.191
300.2
300.209
300.218
300.228
300.237
300.247
300.256
300.266
300.275
300.285
300.295
300.304
300.314
300.324
300.334
300.343
300.353
300.363
300.372
300.382
300.392
300.401
300.411
300.42
300.43
300.439
300.448
300.458
300.467
300.476
300.485
300.494
300.503
300.511
300.52
300.529
300.537
300.546
300.554
300.562
300.57
300.578
300.586
300.594
300.602
300.609
300.617
300.624
300.632
300.639
300.646
300.653
300.002
300.006
300.011
300.015
300.02
300.025
300.03
300.035
300.041
300.046
300.052
300.058
300.064
300.071
300.077
300.084
300.091
300.098
300.105
300.112
300.12
300.128
300.136
300.144
300.152
300.16
300.168
300.177
300.185
300.194
300.203
300.212
300.221
300.23
300.239
300.248
300.257
300.266
300.276
300.285
300.294
300.303
300.313
300.322
300.331
300.341
300.35
300.359
300.368
300.378
300.387
300.396
300.405
300.414
300.423
300.432
300.44
300.449
300.458
300.466
300.475
300.483
300.492
300.5
300.508
300.516
300.524
300.532
300.54
300.547
300.555
300.563
300.57
300.577
300.585
300.592
300.599
300.606
300.613
300.619
300.626
300.002
300.006
300.01
300.015
300.019
300.024
300.029
300.034
300.04
300.045
300.051
300.057
300.063
300.069
300.076
300.082
300.089
300.096
300.103
300.11
300.117
300.125
300.133
300.14
300.148
300.156
300.165
300.173
300.181
300.19
300.198
300.207
300.216
300.224
300.233
300.242
300.251
300.26
300.269
300.278
300.287
300.296
300.305
300.314
300.323
300.332
300.341
300.35
300.358
300.367
300.376
300.385
300.394
300.402
300.411
300.419
300.428
300.436
300.445
300.453
300.461
300.469
300.477
300.485
300.493
300.501
300.508
300.516
300.524
300.531
300.538
300.546
300.553
300.56
300.567
300.573
300.58
300.587
300.593
300.6
300.606
300.002
300.006
300.01
300.015
300.019
300.024
300.029
300.034
300.039
300.045
300.05
300.056
300.062
300.068
300.075
300.081
300.088
300.095
300.102
300.109
300.116
300.124
300.131
300.139
300.147
300.155
300.163
300.171
300.179
300.187
300.196
300.204
300.213
300.221
300.23
300.239
300.247
300.256
300.265
300.274
300.283
300.292
300.3
300.309
300.318
300.327
300.336
300.344
300.353
300.362
300.37
300.379
300.388
300.396
300.404
300.413
300.421
300.429
300.438
300.446
300.454
300.462
300.469
300.477
300.485
300.492
300.5
300.507
300.515
300.522
300.529
300.536
300.543
300.55
300.557
300.564
300.57
300.577
300.583
300.589
300.596
303.027
303.156
303.234
303.306
303.37
303.421
303.456
303.496
303.536
303.573
303.605
303.639
303.674
303.708
303.742
303.775
303.806
303.834
303.863
303.893
303.922
303.952
303.982
304.011
304.04
304.068
304.096
304.124
304.152
304.179
304.206
304.233
304.258
304.285
304.311
304.336
304.361
304.387
304.411
304.436
304.461
304.484
304.51
304.537
304.562
304.587
304.61
304.635
304.661
304.685
304.709
304.731
304.755
304.779
304.804
304.829
304.854
304.879
304.903
304.926
304.946
304.968
304.99
305.014
305.037
305.06
305.083
305.106
305.129
305.152
305.174
305.195
305.217
305.239
305.26
305.281
305.302
305.323
305.342
305.364
305.389
305.411
305.431
305.451
305.469
305.486
305.506
305.529
305.549
305.567
305.583
305.602
305.623
305.64
305.659
305.68
305.698
305.714
305.733
305.75
305.765
305.782
305.796
305.812
305.829
305.847
305.863
305.875
305.889
305.902
305.915
305.93
305.945
305.96
305.972
305.982
305.994
306.006
306.019
306.029
306.037
306.046
306.056
306.064
306.073
306.078
306.085
306.091
306.096
306.1
306.104
306.106
306.108
306.108
306.107
306.105
306.101
306.096
306.09
306.081
306.072
306.06
306.047
306.032
306.014
305.995
305.972
305.947
305.919
305.886
305.846
305.804
305.763
305.716
305.663
305.603
305.538
305.427
305.327
305.2
305.035
302.925
303.039
303.128
303.203
303.269
303.324
303.37
303.414
303.456
303.495
303.532
303.568
303.604
303.639
303.674
303.708
303.74
303.77
303.801
303.831
303.862
303.892
303.922
303.951
303.981
304.01
304.038
304.067
304.095
304.122
304.15
304.177
304.204
304.23
304.256
304.282
304.308
304.334
304.359
304.384
304.409
304.434
304.459
304.486
304.511
304.536
304.561
304.585
304.611
304.636
304.66
304.683
304.707
304.731
304.756
304.781
304.806
304.831
304.855
304.878
304.9
304.922
304.945
304.968
304.991
305.015
305.038
305.061
305.084
305.107
305.129
305.151
305.173
305.195
305.216
305.237
305.259
305.28
305.3
305.322
305.346
305.368
305.388
305.408
305.427
305.446
305.466
305.487
305.507
305.526
305.543
305.562
305.582
305.601
305.62
305.64
305.658
305.675
305.693
305.711
305.726
305.743
305.758
305.775
305.791
305.809
305.824
305.838
305.852
305.865
305.879
305.893
305.908
305.922
305.935
305.946
305.958
305.97
305.982
305.993
306.001
306.011
306.02
306.029
306.037
306.043
306.049
306.055
306.061
306.065
306.069
306.072
306.073
306.073
306.072
306.07
306.066
306.061
306.055
306.047
306.037
306.026
306.013
305.997
305.98
305.96
305.937
305.912
305.884
305.85
305.811
305.769
305.726
305.678
305.624
305.562
305.492
305.385
305.279
305.146
304.965
302.843
302.943
303.029
303.105
303.171
303.23
303.281
303.329
303.373
303.415
303.455
303.493
303.531
303.567
303.603
303.637
303.67
303.703
303.734
303.766
303.797
303.828
303.858
303.889
303.918
303.948
303.977
304.006
304.034
304.062
304.09
304.118
304.145
304.172
304.199
304.225
304.251
304.277
304.303
304.329
304.354