/*--------------------------------*- C++ -*----------------------------------*\
| =========                 |                                                 |
| \\      /  F ield         | OpenFOAM: The Open Source CFD Toolbox           |
|  \\    /   O peration     | Version:  2106                                  |
|   \\  /    A nd           | Website:  www.openfoam.com                      |
|    \\/     M anipulation  |                                                 |
\*---------------------------------------------------------------------------*/
FoamFile
{
    version     2.0;
    format      ascii;
    arch        "LSB;label=32;scalar=64";
    class       volVectorField;
    location    "4.8";
    object      U;
}
// * * * * * * * * * * * * * * * * * * * * * * * * * * * * * * * * * * * * * //

dimensions      [0 1 -1 0 0 0 0];

internalField   nonuniform List<vector> 
12013
(
(0.100033 -9.27787e-06 0)
(0.100169 -1.71507e-05 0)
(0.10039 -2.44459e-05 0)
(0.100675 -3.11697e-05 0)
(0.101019 -3.74867e-05 0)
(0.101415 -4.34914e-05 0)
(0.10186 -4.92434e-05 0)
(0.102349 -5.47917e-05 0)
(0.102879 -6.01731e-05 0)
(0.103446 -6.5416e-05 0)
(0.104047 -7.05431e-05 0)
(0.10468 -7.55729e-05 0)
(0.105343 -8.05206e-05 0)
(0.106033 -8.53971e-05 0)
(0.106749 -9.02131e-05 0)
(0.10749 -9.49752e-05 0)
(0.108252 -9.96896e-05 0)
(0.109036 -0.00010436 0)
(0.109839 -0.00010899 0)
(0.11066 -0.000113582 0)
(0.111499 -0.000118136 0)
(0.112352 -0.000122652 0)
(0.11322 -0.000127129 0)
(0.114101 -0.000131565 0)
(0.114995 -0.000135958 0)
(0.115899 -0.000140305 0)
(0.116813 -0.000144601 0)
(0.117736 -0.000148843 0)
(0.118667 -0.000153025 0)
(0.119605 -0.000157141 0)
(0.120548 -0.000161184 0)
(0.121496 -0.000165148 0)
(0.122448 -0.000169025 0)
(0.123403 -0.000172804 0)
(0.124359 -0.000176478 0)
(0.125316 -0.000180035 0)
(0.126273 -0.000183464 0)
(0.127228 -0.000186753 0)
(0.128181 -0.000189887 0)
(0.12913 -0.000192852 0)
(0.130075 -0.000195632 0)
(0.131015 -0.000198206 0)
(0.131948 -0.000200556 0)
(0.132873 -0.000202659 0)
(0.133789 -0.000204491 0)
(0.134694 -0.000206021 0)
(0.135589 -0.00020722 0)
(0.13647 -0.000208052 0)
(0.137338 -0.000208476 0)
(0.13819 -0.000208446 0)
(0.139024 -0.000207909 0)
(0.13984 -0.000206806 0)
(0.140635 -0.000205066 0)
(0.141407 -0.000202607 0)
(0.142155 -0.000199335 0)
(0.142876 -0.000195137 0)
(0.143567 -0.000189881 0)
(0.144226 -0.000183408 0)
(0.144848 -0.000175529 0)
(0.145432 -0.000166012 0)
(0.145971 -0.000154576 0)
(0.146462 -0.000140874 0)
(0.146898 -0.000124472 0)
(0.147273 -0.000104826 0)
(0.147579 -8.12377e-05 0)
(0.147805 -5.28101e-05 0)
(0.14794 -1.83656e-05 0)
(0.147969 2.36729e-05 0)
(0.147874 7.54961e-05 0)
(0.147629 0.000140165 0)
(0.147204 0.000222053 0)
(0.146556 0.00032759 0)
(0.145627 0.000466515 0)
(0.144334 0.00065406 0)
(0.142558 0.000914851 0)
(0.140122 0.00129007 0)
(0.13675 0.00185109 0)
(0.131985 0.002729 0)
(0.125071 0.00420504 0)
(0.114975 0.00710053 0)
(0.103399 0.0152502 0)
(0.100031 -2.83291e-05 0)
(0.100166 -5.25841e-05 0)
(0.100386 -7.49899e-05 0)
(0.10067 -9.56253e-05 0)
(0.101013 -0.000115013 0)
(0.101409 -0.00013344 0)
(0.101853 -0.00015109 0)
(0.102341 -0.000168114 0)
(0.10287 -0.000184624 0)
(0.103435 -0.000200708 0)
(0.104036 -0.000216436 0)
(0.104668 -0.000231865 0)
(0.10533 -0.00024704 0)
(0.106019 -0.000261998 0)
(0.106734 -0.000276767 0)
(0.107473 -0.000291371 0)
(0.108235 -0.000305828 0)
(0.109017 -0.00032015 0)
(0.109819 -0.000334346 0)
(0.110639 -0.000348424 0)
(0.111476 -0.000362385 0)
(0.112328 -0.000376228 0)
(0.113195 -0.000389951 0)
(0.114074 -0.000403548 0)
(0.114966 -0.000417013 0)
(0.115869 -0.000430334 0)
(0.116781 -0.000443501 0)
(0.117703 -0.000456498 0)
(0.118632 -0.000469311 0)
(0.119567 -0.000481921 0)
(0.120509 -0.000494308 0)
(0.121455 -0.00050645 0)
(0.122405 -0.000518322 0)
(0.123357 -0.000529897 0)
(0.124311 -0.000541147 0)
(0.125266 -0.000552038 0)
(0.12622 -0.000562537 0)
(0.127173 -0.000572604 0)
(0.128124 -0.000582196 0)
(0.129071 -0.000591269 0)
(0.130014 -0.000599771 0)
(0.13095 -0.000607646 0)
(0.131881 -0.000614833 0)
(0.132803 -0.000621262 0)
(0.133716 -0.000626856 0)
(0.134619 -0.000631531 0)
(0.135511 -0.000635188 0)
(0.13639 -0.00063772 0)
(0.137254 -0.000639003 0)
(0.138103 -0.000638896 0)
(0.138935 -0.000637239 0)
(0.139748 -0.000633848 0)
(0.14054 -0.000628508 0)
(0.14131 -0.000620971 0)
(0.142055 -0.000610949 0)
(0.142773 -0.000598099 0)
(0.143462 -0.000582018 0)
(0.144118 -0.000562225 0)
(0.144739 -0.000538142 0)
(0.145321 -0.00050907 0)
(0.14586 -0.000474157 0)
(0.14635 -0.000432352 0)
(0.146787 -0.000382347 0)
(0.147164 -0.0003225 0)
(0.147473 -0.00025072 0)
(0.147705 -0.000164314 0)
(0.147849 -5.97682e-05 0)
(0.14789 6.75862e-05 0)
(0.147813 0.000224144 0)
(0.147595 0.000418783 0)
(0.147208 0.000664053 0)
(0.146617 0.000978139 0)
(0.145775 0.00138807 0)
(0.144617 0.00193509 0)
(0.143057 0.00268375 0)
(0.140979 0.0037374 0)
(0.138225 0.0052638 0)
(0.134579 0.00753711 0)
(0.129781 0.0110076 0)
(0.123848 0.0163256 0)
(0.118951 0.0237854 0)
(0.100028 -4.81547e-05 0)
(0.100162 -9.01984e-05 0)
(0.10038 -0.000128788 0)
(0.100662 -0.000164316 0)
(0.101003 -0.00019769 0)
(0.101397 -0.000229401 0)
(0.10184 -0.000259773 0)
(0.102326 -0.000289063 0)
(0.102853 -0.000317465 0)
(0.103417 -0.000345132 0)
(0.104015 -0.000372185 0)
(0.104645 -0.000398721 0)
(0.105304 -0.000424818 0)
(0.105992 -0.000450539 0)
(0.106705 -0.000475933 0)
(0.107441 -0.000501042 0)
(0.1082 -0.000525895 0)
(0.10898 -0.000550514 0)
(0.10978 -0.000574917 0)
(0.110597 -0.000599111 0)
(0.111431 -0.000623103 0)
(0.11228 -0.000646891 0)
(0.113143 -0.00067047 0)
(0.11402 -0.000693831 0)
(0.114908 -0.00071696 0)
(0.115808 -0.000739842 0)
(0.116717 -0.000762455 0)
(0.117635 -0.000784775 0)
(0.11856 -0.000806774 0)
(0.119492 -0.000828422 0)
(0.120429 -0.000849684 0)
(0.121372 -0.000870522 0)
(0.122317 -0.000890893 0)
(0.123265 -0.000910752 0)
(0.124215 -0.000930047 0)
(0.125165 -0.000948723 0)
(0.126115 -0.000966721 0)
(0.127063 -0.000983973 0)
(0.128009 -0.00100041 0)
(0.128951 -0.00101595 0)
(0.129888 -0.0010305 0)
(0.13082 -0.00104398 0)
(0.131745 -0.00105627 0)
(0.132662 -0.00106725 0)
(0.13357 -0.0010768 0)
(0.134467 -0.00108476 0)
(0.135353 -0.00109098 0)
(0.136226 -0.00109527 0)
(0.137085 -0.00109741 0)
(0.137928 -0.00109716 0)
(0.138754 -0.00109426 0)
(0.139561 -0.00108839 0)
(0.140348 -0.00107918 0)
(0.141112 -0.00106622 0)
(0.141851 -0.00104901 0)
(0.142564 -0.00102697 0)
(0.143248 -0.000999437 0)
(0.1439 -0.000965583 0)
(0.144517 -0.000924445 0)
(0.145095 -0.00087485 0)
(0.145631 -0.000815376 0)
(0.146121 -0.000744275 0)
(0.146558 -0.000659383 0)
(0.146938 -0.000557994 0)
(0.147252 -0.000436685 0)
(0.147493 -0.000291081 0)
(0.147652 -0.000115518 0)
(0.147715 9.74274e-05 0)
(0.147668 0.000357734 0)
(0.147495 0.000679024 0)
(0.147174 0.00108014 0)
(0.146679 0.00158761 0)
(0.145978 0.00223943 0)
(0.145034 0.00309098 0)
(0.143804 0.00422386 0)
(0.142244 0.00575897 0)
(0.14032 0.00787319 0)
(0.138038 0.0108153 0)
(0.135502 0.0149044 0)
(0.13312 0.020399 0)
(0.132089 0.0267449 0)
(0.100026 -6.85848e-05 0)
(0.100157 -0.00012989 0)
(0.100372 -0.000185777 0)
(0.100651 -0.000237261 0)
(0.10099 -0.000285599 0)
(0.101381 -0.000331514 0)
(0.101821 -0.000375481 0)
(0.102304 -0.000417873 0)
(0.102828 -0.000458973 0)
(0.103389 -0.000499004 0)
(0.103984 -0.000538141 0)
(0.104611 -0.000576524 0)
(0.105267 -0.000614267 0)
(0.105951 -0.000651461 0)
(0.10666 -0.00068818 0)
(0.107394 -0.00072448 0)
(0.108149 -0.000760406 0)
(0.108925 -0.000795989 0)
(0.10972 -0.000831254 0)
(0.110533 -0.000866215 0)
(0.111362 -0.000900877 0)
(0.112207 -0.000935239 0)
(0.113066 -0.000969294 0)
(0.113938 -0.00100303 0)
(0.114821 -0.00103643 0)
(0.115715 -0.00106946 0)
(0.116619 -0.00110209 0)
(0.117532 -0.0011343 0)
(0.118451 -0.00116604 0)
(0.119377 -0.00119727 0)
(0.120309 -0.00122793 0)
(0.121245 -0.00125797 0)
(0.122184 -0.00128733 0)
(0.123126 -0.00131595 0)
(0.124069 -0.00134374 0)
(0.125012 -0.00137063 0)
(0.125955 -0.00139654 0)
(0.126896 -0.00142136 0)
(0.127834 -0.00144499 0)
(0.128769 -0.00146732 0)
(0.129699 -0.00148823 0)
(0.130622 -0.00150756 0)
(0.131539 -0.00152518 0)
(0.132448 -0.00154091 0)
(0.133348 -0.00155456 0)
(0.134237 -0.00156592 0)
(0.135114 -0.00157475 0)
(0.135979 -0.0015808 0)
(0.136829 -0.00158375 0)
(0.137663 -0.00158327 0)
(0.138481 -0.00157896 0)
(0.139279 -0.00157038 0)
(0.140057 -0.00155701 0)
(0.140813 -0.00153826 0)
(0.141545 -0.00151343 0)
(0.14225 -0.00148172 0)
(0.142927 -0.00144215 0)
(0.143572 -0.0013936 0)
(0.144183 -0.00133471 0)
(0.144757 -0.00126386 0)
(0.14529 -0.00117909 0)
(0.145778 -0.00107798 0)
(0.146217 -0.000957588 0)
(0.146601 -0.00081425 0)
(0.146924 -0.000643374 0)
(0.14718 -0.000439151 0)
(0.147359 -0.000194163 0)
(0.147454 0.00010114 0)
(0.147454 0.000459258 0)
(0.147345 0.000896855 0)
(0.147116 0.00143628 0)
(0.146752 0.0021078 0)
(0.146237 0.00295268 0)
(0.145561 0.00402744 0)
(0.144719 0.00540921 0)
(0.143723 0.00720128 0)
(0.142619 0.00953555 0)
(0.141515 0.0125623 0)
(0.14062 0.0164038 0)
(0.140302 0.0210034 0)
(0.14108 0.025704 0)
(0.100023 -8.96259e-05 0)
(0.100152 -0.000171583 0)
(0.100363 -0.000245922 0)
(0.100638 -0.000314477 0)
(0.100973 -0.000378819 0)
(0.101361 -0.00043991 0)
(0.101796 -0.000498394 0)
(0.102276 -0.000554768 0)
(0.102796 -0.000609413 0)
(0.103353 -0.000662626 0)
(0.103943 -0.000714639 0)
(0.104566 -0.000765641 0)
(0.105218 -0.000815784 0)
(0.105897 -0.000865189 0)
(0.106601 -0.000913953 0)
(0.10733 -0.000962153 0)
(0.10808 -0.00100985 0)
(0.10885 -0.00105708 0)
(0.10964 -0.00110388 0)
(0.110447 -0.00115027 0)
(0.111271 -0.00119625 0)
(0.112109 -0.00124182 0)
(0.112962 -0.00128698 0)
(0.113827 -0.00133171 0)
(0.114704 -0.00137597 0)
(0.115591 -0.00141974 0)
(0.116488 -0.00146298 0)
(0.117392 -0.00150564 0)
(0.118305 -0.00154767 0)
(0.119223 -0.001589 0)
(0.120146 -0.00162957 0)
(0.121074 -0.00166931 0)
(0.122005 -0.00170814 0)
(0.122938 -0.00174596 0)
(0.123872 -0.00178268 0)
(0.124806 -0.00181819 0)
(0.125739 -0.00185238 0)
(0.12667 -0.00188512 0)
(0.127599 -0.00191627 0)
(0.128523 -0.00194569 0)
(0.129443 -0.00197319 0)
(0.130356 -0.00199861 0)
(0.131262 -0.00202174 0)
(0.13216 -0.00204236 0)
(0.133049 -0.00206021 0)
(0.133927 -0.00207503 0)
(0.134793 -0.00208649 0)
(0.135646 -0.00209426 0)
(0.136485 -0.00209794 0)
(0.137309 -0.00209708 0)
(0.138115 -0.00209118 0)
(0.138902 -0.00207965 0)
(0.139669 -0.00206183 0)
(0.140415 -0.00203695 0)
(0.141136 -0.00200412 0)
(0.141832 -0.00196229 0)
(0.142499 -0.00191025 0)
(0.143137 -0.00184655 0)
(0.143741 -0.00176949 0)
(0.14431 -0.00167702 0)
(0.14484 -0.0015667 0)
(0.145327 -0.00143556 0)
(0.145769 -0.00127999 0)
(0.14616 -0.00109554 0)
(0.146496 -0.000876739 0)
(0.146772 -0.000616734 0)
(0.146982 -0.000306944 0)
(0.147119 6.3451e-05 0)
(0.147178 0.00050807 0)
(0.147152 0.00104458 0)
(0.147036 0.00169576 0)
(0.146826 0.00249098 0)
(0.146522 0.003468 0)
(0.146134 0.00467482 0)
(0.145681 0.00617108 0)
(0.145206 0.00802742 0)
(0.144786 0.0103193 0)
(0.144543 0.0131081 0)
(0.144661 0.0163949 0)
(0.145377 0.020025 0)
(0.146894 0.0235246 0)
(0.10002 -0.000111286 0)
(0.100147 -0.000215208 0)
(0.100353 -0.000309177 0)
(0.100624 -0.000395954 0)
(0.100954 -0.000477386 0)
(0.101337 -0.000554676 0)
(0.101768 -0.000628646 0)
(0.102242 -0.000699927 0)
(0.102757 -0.000769004 0)
(0.103308 -0.000836252 0)
(0.103894 -0.000901968 0)
(0.10451 -0.000966392 0)
(0.105157 -0.00102972 0)
(0.10583 -0.00109209 0)
(0.106528 -0.00115365 0)
(0.10725 -0.00121448 0)
(0.107993 -0.00127465 0)
(0.108757 -0.00133423 0)
(0.109539 -0.00139325 0)
(0.110339 -0.00145174 0)
(0.111155 -0.0015097 0)
(0.111986 -0.00156713 0)
(0.112831 -0.00162402 0)
(0.113687 -0.00168035 0)
(0.114556 -0.00173608 0)
(0.115434 -0.00179118 0)
(0.116321 -0.00184559 0)
(0.117217 -0.00189925 0)
(0.118119 -0.00195209 0)
(0.119028 -0.00200405 0)
(0.119941 -0.00205503 0)
(0.120858 -0.00210494 0)
(0.121778 -0.00215368 0)
(0.1227 -0.00220113 0)
(0.123623 -0.00224718 0)
(0.124545 -0.00229169 0)
(0.125467 -0.00233451 0)
(0.126386 -0.00237548 0)
(0.127302 -0.00241444 0)
(0.128214 -0.00245118 0)
(0.129121 -0.00248551 0)
(0.130021 -0.0025172 0)
(0.130914 -0.00254598 0)
(0.131799 -0.00257158 0)
(0.132674 -0.0025937 0)
(0.133538 -0.00261199 0)
(0.134391 -0.00262606 0)
(0.13523 -0.00263548 0)
(0.136055 -0.00263978 0)
(0.136865 -0.00263839 0)
(0.137657 -0.00263069 0)
(0.138431 -0.00261599 0)
(0.139185 -0.00259346 0)
(0.139918 -0.00256217 0)
(0.140627 -0.00252105 0)
(0.141312 -0.00246884 0)
(0.141969 -0.00240408 0)
(0.142598 -0.00232507 0)
(0.143195 -0.00222979 0)
(0.143758 -0.00211585 0)
(0.144286 -0.00198043 0)
(0.144774 -0.00182013 0)
(0.145221 -0.00163084 0)
(0.145623 -0.00140764 0)
(0.145976 -0.00114449 0)
(0.146278 -0.000834038 0)
(0.146525 -0.000467261 0)
(0.146715 -3.30755e-05 0)
(0.146844 0.000481926 0)
(0.146913 0.00109435 0)
(0.146922 0.00182475 0)
(0.146876 0.0026981 0)
(0.146787 0.00374432 0)
(0.146674 0.0049982 0)
(0.146571 0.00649822 0)
(0.146526 0.00828299 0)
(0.146616 0.0103831 0)
(0.146941 0.0128049 0)
(0.147628 0.0155018 0)
(0.148805 0.0183288 0)
(0.15054 0.0209937 0)
(0.100018 -0.000133575 0)
(0.100141 -0.000260705 0)
(0.100342 -0.000375494 0)
(0.100608 -0.000481662 0)
(0.100932 -0.000581308 0)
(0.10131 -0.000675861 0)
(0.101734 -0.000766328 0)
(0.102203 -0.00085348 0)
(0.102711 -0.000937913 0)
(0.103256 -0.00102008 0)
(0.103835 -0.00110036 0)
(0.104445 -0.00117904 0)
(0.105084 -0.00125635 0)
(0.10575 -0.00133249 0)
(0.10644 -0.0014076 0)
(0.107154 -0.0014818 0)
(0.107889 -0.00155519 0)
(0.108645 -0.00162782 0)
(0.109419 -0.00169976 0)
(0.11021 -0.00177102 0)
(0.111016 -0.00184162 0)
(0.111838 -0.00191155 0)
(0.112672 -0.00198081 0)
(0.113519 -0.00204935 0)
(0.114377 -0.00211715 0)
(0.115244 -0.00218415 0)
(0.11612 -0.00225028 0)
(0.117005 -0.00231548 0)
(0.117895 -0.00237967 0)
(0.118792 -0.00244274 0)
(0.119692 -0.0025046 0)
(0.120597 -0.00256512 0)
(0.121504 -0.0026242 0)
(0.122413 -0.00268168 0)
(0.123322 -0.00273743 0)
(0.12423 -0.00279127 0)
(0.125138 -0.00284302 0)
(0.126042 -0.00289251 0)
(0.126944 -0.00293951 0)
(0.127841 -0.0029838 0)
(0.128732 -0.00302512 0)
(0.129617 -0.0030632 0)
(0.130494 -0.00309773 0)
(0.131363 -0.00312839 0)
(0.132222 -0.00315479 0)
(0.133071 -0.00317653 0)
(0.133907 -0.00319315 0)
(0.13473 -0.00320414 0)
(0.135539 -0.00320893 0)
(0.136333 -0.00320686 0)
(0.13711 -0.00319721 0)
(0.137868 -0.00317914 0)
(0.138607 -0.00315172 0)
(0.139326 -0.00311385 0)
(0.140022 -0.0030643 0)
(0.140694 -0.00300165 0)
(0.14134 -0.00292423 0)
(0.141959 -0.00283011 0)
(0.142549 -0.00271707 0)
(0.143108 -0.00258246 0)
(0.143634 -0.00242318 0)
(0.144125 -0.0022356 0)
(0.144579 -0.00201537 0)
(0.144994 -0.00175736 0)
(0.145369 -0.00145542 0)
(0.145702 -0.00110226 0)
(0.145993 -0.000689151 0)
(0.146241 -0.000205721 0)
(0.146447 0.00036015 0)
(0.146616 0.00102243 0)
(0.146752 0.00179763 0)
(0.146867 0.00270448 0)
(0.146977 0.00376354 0)
(0.147107 0.00499609 0)
(0.147289 0.00642196 0)
(0.14757 0.00805566 0)
(0.148009 0.00989984 0)
(0.148676 0.0119352 0)
(0.149648 0.0141061 0)
(0.150986 0.0163047 0)
(0.152701 0.0183614 0)
(0.100015 -0.000156512 0)
(0.100136 -0.000308034 0)
(0.100332 -0.000444832 0)
(0.100592 -0.000571562 0)
(0.100909 -0.000690569 0)
(0.10128 -0.00080348 0)
(0.101698 -0.000911488 0)
(0.102159 -0.00101551 0)
(0.10266 -0.00111626 0)
(0.103197 -0.00121427 0)
(0.103768 -0.00131 0)
(0.10437 -0.00140379 0)
(0.105 -0.00149591 0)
(0.105657 -0.00158661 0)
(0.106339 -0.00167606 0)
(0.107043 -0.00176439 0)
(0.107769 -0.00185173 0)
(0.108514 -0.00193814 0)
(0.109278 -0.00202369 0)
(0.110058 -0.00210841 0)
(0.110854 -0.00219231 0)
(0.111664 -0.00227539 0)
(0.112487 -0.00235763 0)
(0.113321 -0.002439 0)
(0.114167 -0.00251945 0)
(0.115022 -0.00259891 0)
(0.115885 -0.00267731 0)
(0.116756 -0.00275456 0)
(0.117632 -0.00283058 0)
(0.118515 -0.00290523 0)
(0.119401 -0.00297841 0)
(0.120291 -0.00304998 0)
(0.121183 -0.00311977 0)
(0.122076 -0.00318765 0)
(0.122969 -0.00325342 0)
(0.123861 -0.00331689 0)
(0.124752 -0.00337785 0)
(0.12564 -0.00343608 0)
(0.126524 -0.00349132 0)
(0.127404 -0.00354331 0)
(0.128278 -0.00359175 0)
(0.129145 -0.00363632 0)
(0.130004 -0.00367666 0)
(0.130855 -0.00371239 0)
(0.131696 -0.00374306 0)
(0.132526 -0.00376822 0)
(0.133344 -0.00378732 0)
(0.134149 -0.00379978 0)
(0.134939 -0.00380494 0)
(0.135715 -0.00380207 0)
(0.136474 -0.00379034 0)
(0.137216 -0.0037688 0)
(0.137939 -0.00373641 0)
(0.138641 -0.00369196 0)
(0.139323 -0.00363408 0)
(0.139981 -0.0035612 0)
(0.140616 -0.00347153 0)
(0.141225 -0.00336299 0)
(0.141808 -0.00323321 0)
(0.142363 -0.00307943 0)
(0.142888 -0.00289845 0)
(0.143383 -0.00268656 0)
(0.143847 -0.00243945 0)
(0.144279 -0.00215212 0)
(0.144679 -0.00181873 0)
(0.145047 -0.00143256 0)
(0.145384 -0.000985828 0)
(0.145693 -0.00046963 0)
(0.145978 0.00012612 0)
(0.146244 0.000811918 0)
(0.146501 0.00159946 0)
(0.146761 0.00250095 0)
(0.147043 0.00352824 0)
(0.147368 0.00469145 0)
(0.147767 0.00599692 0)
(0.148275 0.00744428 0)
(0.148934 0.00902236 0)
(0.149788 0.0107042 0)
(0.150876 0.0124415 0)
(0.152225 0.014161 0)
(0.153827 0.0157669 0)
(0.100012 -0.000180126 0)
(0.10013 -0.000357165 0)
(0.100321 -0.000517154 0)
(0.100574 -0.000665612 0)
(0.100885 -0.000805133 0)
(0.101248 -0.000937518 0)
(0.101658 -0.00106414 0)
(0.102111 -0.00118606 0)
(0.102603 -0.0013041 0)
(0.103132 -0.0014189 0)
(0.103693 -0.00153098 0)
(0.104285 -0.00164076 0)
(0.104906 -0.00174855 0)
(0.105553 -0.00185463 0)
(0.106224 -0.00195921 0)
(0.106917 -0.00206244 0)
(0.107632 -0.00216447 0)
(0.108366 -0.00226539 0)
(0.109117 -0.00236525 0)
(0.109885 -0.00246411 0)
(0.110668 -0.00256196 0)
(0.111465 -0.00265882 0)
(0.112275 -0.00275466 0)
(0.113095 -0.00284944 0)
(0.113926 -0.0029431 0)
(0.114767 -0.00303556 0)
(0.115615 -0.00312675 0)
(0.11647 -0.00321655 0)
(0.117331 -0.00330486 0)
(0.118197 -0.00339154 0)
(0.119067 -0.00347645 0)
(0.11994 -0.00355942 0)
(0.120814 -0.0036403 0)
(0.121689 -0.00371888 0)
(0.122565 -0.00379495 0)
(0.123439 -0.00386831 0)
(0.124311 -0.0039387 0)
(0.12518 -0.00400585 0)
(0.126044 -0.00406949 0)
(0.126904 -0.0041293 0)
(0.127758 -0.00418495 0)
(0.128605 -0.00423606 0)
(0.129445 -0.00428222 0)
(0.130275 -0.00432301 0)
(0.131095 -0.00435792 0)
(0.131905 -0.00438643 0)
(0.132702 -0.00440793 0)
(0.133487 -0.00442178 0)
(0.134258 -0.00442724 0)
(0.135014 -0.00442349 0)
(0.135754 -0.00440964 0)
(0.136477 -0.00438465 0)
(0.137182 -0.00434739 0)
(0.137868 -0.00429655 0)
(0.138534 -0.00423069 0)
(0.139178 -0.00414815 0)
(0.139801 -0.00404706 0)
(0.140401 -0.0039253 0)
(0.140977 -0.00378045 0)
(0.141528 -0.00360976 0)
(0.142054 -0.00341011 0)
(0.142555 -0.00317793 0)
(0.14303 -0.00290918 0)
(0.14348 -0.00259929 0)
(0.143906 -0.00224311 0)
(0.14431 -0.0018349 0)
(0.144694 -0.00136827 0)
(0.145063 -0.000836285 0)
(0.145421 -0.000231482 0)
(0.145777 0.000453785 0)
(0.14614 0.00122608 0)
(0.146523 0.00209191 0)
(0.146942 0.00305626 0)
(0.147415 0.0041214 0)
(0.147967 0.00528549 0)
(0.148621 0.00654071 0)
(0.149405 0.00787127 0)
(0.150342 0.0092515 0)
(0.151452 0.0106446 0)
(0.152743 0.0120029 0)
(0.154203 0.0132727 0)
(0.100009 -0.000204447 0)
(0.100125 -0.000408075 0)
(0.10031 -0.000592422 0)
(0.100556 -0.000763761 0)
(0.10086 -0.000924949 0)
(0.101214 -0.00107793 0)
(0.101615 -0.00122424 0)
(0.102059 -0.0013651 0)
(0.102542 -0.00150143 0)
(0.10306 -0.00163399 0)
(0.103611 -0.00176335 0)
(0.104192 -0.00189 0)
(0.104802 -0.00201432 0)
(0.105437 -0.00213661 0)
(0.106096 -0.00225711 0)
(0.106777 -0.00237603 0)
(0.107479 -0.0024935 0)
(0.108199 -0.00260963 0)
(0.108937 -0.00272451 0)
(0.109691 -0.00283816 0)
(0.11046 -0.00295063 0)
(0.111242 -0.00306188 0)
(0.112036 -0.00317191 0)
(0.112841 -0.00328067 0)
(0.113656 -0.00338808 0)
(0.11448 -0.00349406 0)
(0.115311 -0.00359852 0)
(0.116148 -0.00370133 0)
(0.116992 -0.00380236 0)
(0.117839 -0.00390146 0)
(0.11869 -0.00399846 0)
(0.119544 -0.00409319 0)
(0.120399 -0.00418544 0)
(0.121254 -0.004275 0)
(0.122109 -0.00436163 0)
(0.122963 -0.00444507 0)
(0.123814 -0.00452506 0)
(0.124661 -0.00460128 0)
(0.125505 -0.00467342 0)
(0.126343 -0.00474112 0)
(0.127175 -0.00480401 0)
(0.128 -0.00486167 0)
(0.128816 -0.00491365 0)
(0.129624 -0.00495946 0)
(0.130422 -0.00499856 0)
(0.131209 -0.00503035 0)
(0.131985 -0.0050542 0)
(0.132747 -0.00506938 0)
(0.133496 -0.00507511 0)
(0.134231 -0.00507051 0)
(0.134951 -0.00505461 0)
(0.135654 -0.00502634 0)
(0.13634 -0.00498448 0)
(0.137008 -0.00492772 0)
(0.137658 -0.00485454 0)
(0.138289 -0.00476329 0)
(0.138899 -0.00465208 0)
(0.139489 -0.00451884 0)
(0.140059 -0.00436123 0)
(0.140607 -0.00417663 0)
(0.141135 -0.00396215 0)
(0.141642 -0.00371456 0)
(0.142129 -0.00343031 0)
(0.142598 -0.0031055 0)
(0.14305 -0.00273591 0)
(0.143488 -0.00231702 0)
(0.143916 -0.00184408 0)
(0.144339 -0.00131226 0)
(0.144763 -0.00071671 0)
(0.145195 -5.27415e-05 0)
(0.145645 0.000683063 0)
(0.146124 0.00149219 0)
(0.146644 0.00237493 0)
(0.147221 0.00332887 0)
(0.147871 0.00434811 0)
(0.148609 0.00542228 0)
(0.14945 0.0065359 0)
(0.150408 0.00766789 0)
(0.151491 0.00879191 0)
(0.152696 0.0098778 0)
(0.154015 0.0108948 0)
(0.100006 -0.000229504 0)
(0.100119 -0.000460744 0)
(0.100299 -0.000670598 0)
(0.100538 -0.000865954 0)
(0.100833 -0.00104995 0)
(0.101179 -0.00122464 0)
(0.10157 -0.00139173 0)
(0.102004 -0.00155257 0)
(0.102476 -0.00170821 0)
(0.102983 -0.00185948 0)
(0.103522 -0.00200706 0)
(0.104091 -0.00215148 0)
(0.104688 -0.00229319 0)
(0.10531 -0.00243251 0)
(0.105956 -0.00256975 0)
(0.106623 -0.0027051 0)
(0.10731 -0.00283875 0)
(0.108016 -0.00297082 0)
(0.108739 -0.00310138 0)
(0.109477 -0.0032305 0)
(0.110229 -0.00335819 0)
(0.110994 -0.00348444 0)
(0.111771 -0.00360923 0)
(0.112559 -0.0037325 0)
(0.113356 -0.00385417 0)
(0.114161 -0.00397416 0)
(0.114973 -0.00409233 0)
(0.115791 -0.00420857 0)
(0.116614 -0.00432271 0)
(0.117441 -0.00443458 0)
(0.118272 -0.00454401 0)
(0.119104 -0.00465078 0)
(0.119937 -0.00475466 0)
(0.120771 -0.00485542 0)
(0.121603 -0.00495278 0)
(0.122434 -0.00504646 0)
(0.123262 -0.00513616 0)
(0.124086 -0.00522154 0)
(0.124906 -0.00530223 0)
(0.12572 -0.00537786 0)
(0.126528 -0.00544799 0)
(0.127329 -0.00551219 0)
(0.128121 -0.00556994 0)
(0.128905 -0.00562073 0)
(0.129678 -0.00566396 0)
(0.130441 -0.005699 0)
(0.131193 -0.00572516 0)
(0.131932 -0.00574168 0)
(0.132658 -0.00574773 0)
(0.13337 -0.0057424 0)
(0.134068 -0.00572468 0)
(0.13475 -0.00569346 0)
(0.135417 -0.00564755 0)
(0.136067 -0.00558559 0)
(0.1367 -0.00550611 0)
(0.137316 -0.00540748 0)
(0.137914 -0.00528792 0)
(0.138495 -0.00514546 0)
(0.139058 -0.00497796 0)
(0.139603 -0.00478307 0)
(0.140132 -0.00455824 0)
(0.140645 -0.00430074 0)
(0.141144 -0.00400765 0)
(0.14163 -0.00367589 0)
(0.142106 -0.0033023 0)
(0.142575 -0.00288366 0)
(0.143042 -0.00241687 0)
(0.14351 -0.00189901 0)
(0.143987 -0.00132759 0)
(0.144479 -0.000700609 0)
(0.144995 -1.67059e-05 0)
(0.145543 0.000723293 0)
(0.146132 0.00151599 0)
(0.146774 0.00235672 0)
(0.147478 0.00323828 0)
(0.148254 0.00415051 0)
(0.14911 0.00508023 0)
(0.150051 0.00601144 0)
(0.15108 0.00692597 0)
(0.152192 0.00780477 0)
(0.15338 0.00863011 0)
(0.100003 -0.000255315 0)
(0.100114 -0.000515148 0)
(0.100288 -0.000751629 0)
(0.10052 -0.000972114 0)
(0.100806 -0.00118002 0)
(0.101142 -0.00137754 0)
(0.101523 -0.00156649 0)
(0.101946 -0.00174834 0)
(0.102406 -0.00192429 0)
(0.1029 -0.00209525 0)
(0.103427 -0.00226197 0)
(0.103983 -0.00242505 0)
(0.104565 -0.00258499 0)
(0.105173 -0.00274218 0)
(0.105804 -0.00289693 0)
(0.106455 -0.00304949 0)
(0.107127 -0.00320004 0)
(0.107816 -0.00334873 0)
(0.108521 -0.00349564 0)
(0.109242 -0.00364085 0)
(0.109976 -0.00378436 0)
(0.110723 -0.00392618 0)
(0.111481 -0.00406626 0)
(0.112249 -0.00420455 0)
(0.113025 -0.00434096 0)
(0.11381 -0.00447537 0)
(0.114601 -0.00460767 0)
(0.115398 -0.0047377 0)
(0.116199 -0.00486529 0)
(0.117004 -0.00499024 0)
(0.117811 -0.00511236 0)
(0.11862 -0.0052314 0)
(0.11943 -0.00534711 0)
(0.120239 -0.00545923 0)
(0.121047 -0.00556746 0)
(0.121853 -0.00567148 0)
(0.122656 -0.00577096 0)
(0.123455 -0.00586553 0)
(0.124249 -0.00595479 0)
(0.125037 -0.00603832 0)
(0.125819 -0.00611567 0)
(0.126593 -0.00618635 0)
(0.12736 -0.00624983 0)
(0.128117 -0.00630554 0)
(0.128865 -0.00635287 0)
(0.129602 -0.00639114 0)
(0.130328 -0.00641964 0)
(0.131042 -0.00643757 0)
(0.131744 -0.0064441 0)
(0.132432 -0.00643829 0)
(0.133107 -0.00641914 0)
(0.133768 -0.00638555 0)
(0.134414 -0.00633634 0)
(0.135045 -0.00627021 0)
(0.135661 -0.00618577 0)
(0.136262 -0.0060815 0)
(0.136848 -0.00595576 0)
(0.137418 -0.0058068 0)
(0.137974 -0.00563275 0)
(0.138517 -0.00543162 0)
(0.139046 -0.00520131 0)
(0.139564 -0.00493967 0)
(0.140073 -0.00464449 0)
(0.140573 -0.00431357 0)
(0.141069 -0.00394477 0)
(0.141564 -0.00353614 0)
(0.142061 -0.00308597 0)
(0.142565 -0.00259301 0)
(0.143081 -0.00205655 0)
(0.143615 -0.00147659 0)
(0.144174 -0.000853928 0)
(0.144766 -0.00019007 0)
(0.145396 0.00051173 0)
(0.146071 0.00124449 0)
(0.146797 0.00200115 0)
(0.147579 0.00277294 0)
(0.148421 0.0035496 0)
(0.149324 0.00431951 0)
(0.150287 0.00507036 0)
(0.151308 0.00579012 0)
(0.152377 0.0064684 0)
(0.0999996 -0.000281888 0)
(0.100108 -0.000571253 0)
(0.100277 -0.000835441 0)
(0.100501 -0.00108214 0)
(0.100778 -0.00131505 0)
(0.101104 -0.00153647 0)
(0.101474 -0.00174832 0)
(0.101884 -0.00195222 0)
(0.102331 -0.00214945 0)
(0.102813 -0.00234105 0)
(0.103325 -0.00252782 0)
(0.103866 -0.00271045 0)
(0.104434 -0.00288947 0)
(0.105025 -0.00306532 0)
(0.105639 -0.00323835 0)
(0.106274 -0.00340884 0)
(0.106928 -0.00357699 0)
(0.107599 -0.00374296 0)
(0.108286 -0.00390685 0)
(0.108987 -0.00406874 0)
(0.109701 -0.00422864 0)
(0.110428 -0.00438654 0)
(0.111165 -0.00454241 0)
(0.111911 -0.00469617 0)
(0.112666 -0.00484773 0)
(0.113428 -0.00499697 0)
(0.114196 -0.00514375 0)
(0.114969 -0.00528789 0)
(0.115746 -0.0054292 0)
(0.116526 -0.00556747 0)
(0.117309 -0.00570248 0)
(0.118092 -0.00583396 0)
(0.118876 -0.00596165 0)
(0.119659 -0.00608523 0)
(0.120441 -0.0062044 0)
(0.12122 -0.0063188 0)
(0.121995 -0.00642807 0)
(0.122767 -0.00653181 0)
(0.123533 -0.00662961 0)
(0.124294 -0.006721 0)
(0.125048 -0.00680551 0)
(0.125794 -0.00688261 0)
(0.126533 -0.00695176 0)
(0.127262 -0.00701235 0)
(0.127982 -0.00706375 0)
(0.128692 -0.00710528 0)
(0.129392 -0.00713621 0)
(0.130079 -0.00715573 0)
(0.130755 -0.00716301 0)
(0.131419 -0.00715713 0)
(0.13207 -0.00713713 0)
(0.132708 -0.00710194 0)
(0.133333 -0.00705045 0)
(0.133945 -0.00698147 0)
(0.134543 -0.00689371 0)
(0.135129 -0.00678585 0)
(0.135701 -0.00665644 0)
(0.136261 -0.00650402 0)
(0.136809 -0.00632705 0)
(0.137347 -0.00612394 0)
(0.137876 -0.00589312 0)
(0.138396 -0.00563303 0)
(0.138911 -0.00534216 0)
(0.139423 -0.00501915 0)
(0.139933 -0.00466281 0)
(0.140445 -0.00427221 0)
(0.140964 -0.00384683 0)
(0.141491 -0.00338658 0)
(0.142033 -0.00289202 0)
(0.142593 -0.00236435 0)
(0.143177 -0.00180562 0)
(0.143789 -0.00121863 0)
(0.144434 -0.000606907 0)
(0.145117 2.58481e-05 0)
(0.145841 0.000672922 0)
(0.146607 0.00132567 0)
(0.147417 0.00197635 0)
(0.148271 0.00261677 0)
(0.149165 0.00323875 0)
(0.150098 0.00383475 0)
(0.151062 0.00439868 0)
(0.0999958 -0.000309217 0)
(0.100102 -0.000629005 0)
(0.100266 -0.00092193 0)
(0.100481 -0.00119588 0)
(0.100749 -0.00145484 0)
(0.101064 -0.0017012 0)
(0.101422 -0.00193697 0)
(0.10182 -0.00216391 0)
(0.102253 -0.00238339 0)
(0.10272 -0.00259653 0)
(0.103217 -0.00280425 0)
(0.103742 -0.00300726 0)
(0.104293 -0.00320616 0)
(0.104867 -0.00340145 0)
(0.105463 -0.0035935 0)
(0.106079 -0.00378261 0)
(0.106714 -0.00396902 0)
(0.107365 -0.00415289 0)
(0.108031 -0.00433435 0)
(0.108711 -0.00451346 0)
(0.109404 -0.00469026 0)
(0.110108 -0.00486472 0)
(0.110822 -0.00503681 0)
(0.111545 -0.00520645 0)
(0.112276 -0.00537352 0)
(0.113013 -0.00553791 0)
(0.113756 -0.00569944 0)
(0.114504 -0.00585794 0)
(0.115255 -0.00601319 0)
(0.116009 -0.00616496 0)
(0.116764 -0.006313 0)
(0.117521 -0.00645703 0)
(0.118276 -0.00659675 0)
(0.119031 -0.00673183 0)
(0.119784 -0.00686194 0)
(0.120534 -0.00698671 0)
(0.121281 -0.00710573 0)
(0.122023 -0.00721859 0)
(0.12276 -0.00732484 0)
(0.123491 -0.00742401 0)
(0.124215 -0.00751558 0)
(0.124932 -0.00759904 0)
(0.125641 -0.00767379 0)
(0.126341 -0.00773925 0)
(0.127032 -0.00779476 0)
(0.127713 -0.00783963 0)
(0.128384 -0.00787315 0)
(0.129045 -0.00789453 0)
(0.129694 -0.00790297 0)
(0.130332 -0.00789759 0)
(0.130958 -0.00787748 0)
(0.131573 -0.00784167 0)
(0.132176 -0.00778914 0)
(0.132767 -0.00771885 0)
(0.133347 -0.00762969 0)
(0.133915 -0.00752051 0)
(0.134473 -0.00739017 0)
(0.135022 -0.00723748 0)
(0.135561 -0.00706128 0)
(0.136092 -0.00686043 0)
(0.136617 -0.00663386 0)
(0.137137 -0.00638056 0)
(0.137655 -0.0060997 0)
(0.138171 -0.00579062 0)
(0.138689 -0.00545289 0)
(0.139212 -0.00508643 0)
(0.139742 -0.0046915 0)
(0.140282 -0.00426885 0)
(0.140836 -0.00381973 0)
(0.141407 -0.00334599 0)
(0.141999 -0.00285011 0)
(0.142614 -0.00233518 0)
(0.143255 -0.00180496 0)
(0.143926 -0.00126364 0)
(0.144628 -0.000715617 0)
(0.145362 -0.00016497 0)
(0.146129 0.000382105 0)
(0.146926 0.000919096 0)
(0.147751 0.00143947 0)
(0.148602 0.00193845 0)
(0.149472 0.00241244 0)
(0.0999918 -0.000337278 0)
(0.100096 -0.000688326 0)
(0.100254 -0.00101096 0)
(0.100461 -0.00131315 0)
(0.100719 -0.00159914 0)
(0.101023 -0.00187142 0)
(0.101368 -0.0021321 0)
(0.101752 -0.00238301 0)
(0.102171 -0.00262565 0)
(0.102622 -0.00286123 0)
(0.103103 -0.00309071 0)
(0.103611 -0.00331491 0)
(0.104143 -0.00353446 0)
(0.104699 -0.0037499 0)
(0.105275 -0.00396165 0)
(0.105871 -0.00417003 0)
(0.106484 -0.0043753 0)
(0.107114 -0.00457765 0)
(0.107758 -0.00477719 0)
(0.108415 -0.00497402 0)
(0.109084 -0.00516816 0)
(0.109764 -0.00535959 0)
(0.110454 -0.00554826 0)
(0.111151 -0.0057341 0)
(0.111856 -0.00591698 0)
(0.112567 -0.00609676 0)
(0.113283 -0.00627327 0)
(0.114003 -0.00644629 0)
(0.114726 -0.00661561 0)
(0.115451 -0.00678097 0)
(0.116177 -0.0069421 0)
(0.116904 -0.00709871 0)
(0.11763 -0.00725046 0)
(0.118354 -0.00739702 0)