/*--------------------------------*- C++ -*----------------------------------*\
| =========                 |                                                 |
| \\      /  F ield         | OpenFOAM: The Open Source CFD Toolbox           |
|  \\    /   O peration     | Version:  2106                                  |
|   \\  /    A nd           | Website:  www.openfoam.com                      |
|    \\/     M anipulation  |                                                 |
\*---------------------------------------------------------------------------*/
FoamFile
{
    version     2.0;
    format      ascii;
    arch        "LSB;label=32;scalar=64";
    class       surfaceScalarField;
    location    "3";
    object      phi;
}
// * * * * * * * * * * * * * * * * * * * * * * * * * * * * * * * * * * * * * //

dimensions      [1 0 -1 0 0 0 0];

oriented        oriented;

internalField   nonuniform List<scalar> 
23692
(
9.31505e-05
-7.09782e-08
9.3279e-05
-1.28403e-07
9.3458e-05
-1.78932e-07
9.3681e-05
-2.22741e-07
9.39426e-05
-2.61384e-07
9.42387e-05
-2.95815e-07
9.45658e-05
-3.2669e-07
9.49207e-05
-3.54528e-07
9.53009e-05
-3.79734e-07
9.5704e-05
-4.02635e-07
9.61281e-05
-4.23485e-07
9.65711e-05
-4.4249e-07
9.70316e-05
-4.59823e-07
9.75079e-05
-4.75616e-07
9.79986e-05
-4.89979e-07
9.85023e-05
-5.03006e-07
9.90179e-05
-5.14771e-07
9.9544e-05
-5.25349e-07
0.00010008
-5.348e-07
0.000100624
-5.43191e-07
0.000101175
-5.50587e-07
0.000101733
-5.57057e-07
0.000102297
-5.62669e-07
0.000102865
-5.675e-07
0.000103438
-5.71618e-07
0.000104014
-5.75094e-07
0.000104593
-5.78004e-07
0.000105175
-5.80404e-07
0.000105758
-5.82353e-07
0.000106343
-5.83898e-07
0.000106929
-5.85076e-07
0.000107516
-5.85916e-07
0.000108103
-5.86429e-07
0.000108691
-5.86621e-07
0.000109279
-5.86486e-07
0.000109866
-5.86008e-07
0.000110452
-5.8516e-07
0.000111037
-5.83909e-07
0.00011162
-5.82213e-07
0.000112201
-5.80025e-07
0.00011278
-5.77291e-07
0.000113355
-5.73954e-07
0.000113926
-5.6995e-07
0.000114492
-5.65213e-07
0.000115053
-5.5967e-07
0.000115607
-5.53245e-07
0.000116154
-5.45856e-07
0.000116692
-5.37416e-07
0.000117221
-5.27828e-07
0.000117739
-5.16986e-07
0.000118245
-5.04777e-07
0.000118737
-4.9107e-07
0.000119213
-4.75719e-07
0.000119673
-4.58558e-07
0.000120113
-4.39395e-07
0.000120532
-4.18005e-07
0.000120927
-3.94127e-07
0.000121295
-3.67452e-07
0.000121634
-3.37606e-07
0.000121939
-3.04143e-07
0.000122206
-2.66521e-07
0.000122431
-2.24068e-07
0.000122608
-1.75959e-07
0.00012273
-1.21154e-07
0.000122789
-5.83418e-08
0.000122775
1.41609e-08
0.000122677
9.86088e-08
0.00012248
1.98002e-07
0.000122165
3.16405e-07
0.000121706
4.59431e-07
0.000121071
6.35021e-07
0.000120218
8.54675e-07
0.000119083
1.13548e-06
0.00011758
1.50349e-06
0.000115581
1.99955e-06
0.000112892
2.68925e-06
0.000109213
3.68e-06
0.000104062
5.15183e-06
9.66343e-05
7.42813e-06
8.54816e-05
1.11534e-05
1.81196e-05
6.73626e-05
9.96733e-05
-1.45151e-07
9.98101e-05
-2.65095e-07
0.000100001
-3.69847e-07
0.000100239
-4.60511e-07
0.000100519
-5.40498e-07
0.000100835
-6.11763e-07
0.000101184
-6.75654e-07
0.000101563
-7.33254e-07
0.000101969
-7.85407e-07
0.0001024
-8.32777e-07
0.000102853
-8.75902e-07
0.000103326
-9.1521e-07
0.000103818
-9.51049e-07
0.000104327
-9.837e-07
0.000104851
-1.01339e-06
0.000105389
-1.04031e-06
0.00010594
-1.06462e-06
0.000106502
-1.08647e-06
0.000107074
-1.10599e-06
0.000107655
-1.12331e-06
0.000108244
-1.13857e-06
0.00010884
-1.15191e-06
0.000109442
-1.16348e-06
0.000110049
-1.17342e-06
0.00011066
-1.18188e-06
0.000111275
-1.18902e-06
0.000111893
-1.19498e-06
0.000112514
-1.19989e-06
0.000113137
-1.20386e-06
0.000113761
-1.20699e-06
0.000114386
-1.20936e-06
0.000115012
-1.21103e-06
0.000115639
-1.21202e-06
0.000116266
-1.21235e-06
0.000116893
-1.21201e-06
0.000117519
-1.21094e-06
0.000118144
-1.20912e-06
0.000118768
-1.20646e-06
0.000119389
-1.20288e-06
0.000120009
-1.19828e-06
0.000120625
-1.19256e-06
0.000121238
-1.18558e-06
0.000121846
-1.17723e-06
0.00012245
-1.16737e-06
0.000123047
-1.15584e-06
0.000123637
-1.14249e-06
0.00012422
-1.12715e-06
0.000124793
-1.10963e-06
0.000125356
-1.08976e-06
0.000125907
-1.0673e-06
0.000126445
-1.04202e-06
0.000126969
-1.01365e-06
0.000127476
-9.81908e-07
0.000127965
-9.46439e-07
0.000128433
-9.06857e-07
0.000128879
-8.62706e-07
0.000129299
-8.13454e-07
0.000129691
-7.58472e-07
0.000130052
-6.9701e-07
0.000130377
-6.28166e-07
0.000130662
-5.50844e-07
0.000130902
-4.63703e-07
0.000131092
-3.6509e-07
0.000131225
-2.52938e-07
0.000131292
-1.24644e-07
0.000131284
2.31121e-08
0.000131189
1.94696e-07
0.000130991
3.95896e-07
0.000130674
6.34457e-07
0.000130213
9.2093e-07
0.000129579
1.26996e-06
0.000128732
1.70227e-06
0.000127621
2.24777e-06
0.000126175
2.95036e-06
0.000124299
3.87561e-06
0.000121867
5.12214e-06
0.000118711
6.83729e-06
0.000114627
9.23555e-06
0.000109438
1.26186e-05
0.000103273
1.7319e-05
2.30306e-05
9.83624e-05
0.000106652
-2.22144e-07
0.000106797
-4.09984e-07
0.000107
-5.7268e-07
0.000107254
-7.13577e-07
0.000107551
-8.37826e-07
0.000107888
-9.4849e-07
0.000108261
-1.04768e-06
0.000108665
-1.13708e-06
0.000109098
-1.21801e-06
0.000109557
-1.2915e-06
0.000110041
-1.35839e-06
0.000110545
-1.41935e-06
0.00011107
-1.47491e-06
0.000111613
-1.52551e-06
0.000112172
-1.57152e-06
0.000112745
-1.61322e-06
0.000113332
-1.65086e-06
0.000113932
-1.68467e-06
0.000114541
-1.71485e-06
0.000115161
-1.74163e-06
0.000115788
-1.76519e-06
0.000116423
-1.78577e-06
0.000117064
-1.80359e-06
0.000117711
-1.81889e-06
0.000118362
-1.83189e-06
0.000119017
-1.84282e-06
0.000119675
-1.85191e-06
0.000120336
-1.85937e-06
0.000120999
-1.86537e-06
0.000121663
-1.87006e-06
0.000122328
-1.87357e-06
0.000122994
-1.87598e-06
0.000123661
-1.87734e-06
0.000124328
-1.87767e-06
0.000124994
-1.87694e-06
0.000125659
-1.87511e-06
0.000126323
-1.87208e-06
0.000126986
-1.86776e-06
0.000127646
-1.86202e-06
0.000128304
-1.85469e-06
0.000128958
-1.84562e-06
0.000129608
-1.83461e-06
0.000130254
-1.82147e-06
0.000130894
-1.80599e-06
0.000131527
-1.78792e-06
0.000132153
-1.76704e-06
0.00013277
-1.74309e-06
0.000133377
-1.71578e-06
0.000133973
-1.68482e-06
0.000134557
-1.64987e-06
0.000135126
-1.61058e-06
0.00013568
-1.56654e-06
0.000136217
-1.51729e-06
0.000136734
-1.46233e-06
0.000137229
-1.40105e-06
0.0001377
-1.33277e-06
0.000138144
-1.25669e-06
0.000138559
-1.17187e-06
0.00013894
-1.07718e-06
0.000139284
-9.71275e-07
0.000139587
-8.52536e-07
0.000139843
-7.18983e-07
0.000140047
-5.68185e-07
0.000140192
-3.9713e-07
0.00014027
-2.02048e-07
0.000140272
2.18115e-08
0.000140187
2.80592e-07
0.000140002
5.82295e-07
0.0001397
9.37486e-07
0.000139261
1.36022e-06
0.000138662
1.86947e-06
0.000137874
2.49118e-06
0.000136862
3.26113e-06
0.000135584
4.22912e-06
0.000133996
5.46434e-06
0.000132057
7.06167e-06
0.000129749
9.14582e-06
0.00012712
1.18651e-05
0.000124387
1.5353e-05
0.000122139
1.95672e-05
2.37685e-05
0.000121402
0.00011412
-3.0183e-07
0.000114273
-5.62784e-07
0.000114488
-7.87389e-07
0.000114757
-9.82118e-07
0.000115073
-1.15375e-06
0.000115431
-1.30654e-06
0.000115827
-1.44345e-06
0.000116258
-1.56681e-06
0.000116719
-1.67845e-06
0.000117207
-1.7798e-06
0.000117722
-1.87201e-06
0.000118259
-1.95601e-06
0.000118818
-2.03254e-06
0.000119395
-2.10223e-06
0.00011999
-2.16555e-06
0.000120601
-2.22291e-06
0.000121225
-2.27466e-06
0.000121863
-2.32111e-06
0.000122512
-2.36255e-06
0.00012317
-2.39927e-06
0.000123838
-2.43156e-06
0.000124513
-2.45971e-06
0.000125194
-2.48405e-06
0.000125882
-2.50488e-06
0.000126574
-2.52254e-06
0.000127269
-2.53734e-06
0.000127968
-2.54959e-06
0.00012867
-2.55956e-06
0.000129373
-2.56752e-06
0.000130078
-2.57367e-06
0.000130784
-2.57817e-06
0.00013149
-2.58115e-06
0.000132197
-2.58267e-06
0.000132903
-2.58276e-06
0.000133609
-2.58139e-06
0.000134314
-2.57849e-06
0.000135017
-2.57395e-06
0.000135718
-2.56762e-06
0.000136417
-2.55931e-06
0.000137112
-2.54884e-06
0.000137804
-2.53595e-06
0.000138491
-2.5204e-06
0.000139173
-2.50192e-06
0.000139848
-2.48022e-06
0.000140516
-2.45497e-06
0.000141177
-2.42586e-06
0.000141827
-2.39253e-06
0.000142467
-2.35461e-06
0.000143095
-2.31168e-06
0.00014371
-2.26331e-06
0.00014431
-2.209e-06
0.000144892
-2.14821e-06
0.000145457
-2.08033e-06
0.000146
-2.00468e-06
0.000146521
-1.92047e-06
0.000147016
-1.82678e-06
0.000147483
-1.72255e-06
0.000147918
-1.60656e-06
0.00014832
-1.47733e-06
0.000148682
-1.33311e-06
0.000149003
-1.17181e-06
0.000149276
-9.90882e-07
0.000149496
-7.87251e-07
0.000149657
-5.57118e-07
0.000149751
-2.95792e-07
0.000149771
2.54311e-09
0.000149708
3.45274e-07
0.000149549
7.41726e-07
0.000149283
1.20403e-06
0.000148897
1.7478e-06
0.000148374
2.39335e-06
0.000147699
3.1672e-06
0.000146857
4.10395e-06
0.000145838
5.24844e-06
0.000144646
6.65764e-06
0.000143307
8.40086e-06
0.000141899
1.05544e-05
0.000140583
1.31827e-05
0.000139648
1.62887e-05
0.00013952
1.96959e-05
2.28201e-05
0.000140469
0.00012211
-3.84169e-07
0.000122271
-7.23271e-07
0.000122498
-1.01389e-06
0.000122782
-1.26622e-06
0.000123117
-1.48854e-06
0.000123497
-1.68636e-06
0.000123918
-1.86356e-06
0.000124375
-2.02316e-06
0.000124864
-2.16753e-06
0.000125384
-2.29854e-06
0.00012593
-2.41769e-06
0.000126501
-2.52618e-06
0.000127094
-2.62498e-06
0.000127708
-2.71489e-06
0.00012834
-2.79654e-06
0.000128988
-2.87045e-06
0.000129652
-2.93709e-06
0.000130329
-2.99685e-06
0.000131017
-3.05011e-06
0.000131716
-3.09724e-06
0.000132425
-3.13862e-06
0.000133141
-3.17463e-06
0.000133864
-3.20568e-06
0.000134592
-3.23219e-06
0.000135326
-3.25456e-06
0.000136063
-3.27323e-06
0.000136803
-3.28857e-06
0.000137546
-3.30095e-06
0.00013829
-3.31071e-06
0.000139036
-3.31811e-06
0.000139783
-3.32337e-06
0.00014053
-3.32664e-06
0.000141276
-3.32802e-06
0.000142023
-3.32753e-06
0.000142768
-3.32514e-06
0.000143512
-3.32077e-06
0.000144253
-3.31427e-06
0.000144992
-3.30545e-06
0.000145729
-3.29409e-06
0.000146461
-3.27992e-06
0.000147189
-3.26265e-06
0.000147912
-3.24194e-06
0.000148629
-3.21746e-06
0.000149339
-3.18882e-06
0.000150041
-3.15564e-06
0.000150734
-3.1175e-06
0.000151417
-3.07395e-06
0.000152088
-3.02451e-06
0.000152746
-2.96867e-06
0.00015339
-2.90587e-06
0.000154018
-2.83551e-06
0.000154628
-2.75689e-06
0.000155218
-2.66928e-06
0.000155786
-2.57182e-06
0.00015633
-2.46353e-06
0.000156848
-2.34331e-06
0.000157337
-2.20987e-06
0.000157793
-2.06171e-06
0.000158214
-1.89707e-06
0.000158596
-1.71387e-06
0.000158934
-1.50963e-06
0.000159226
-1.28141e-06
0.000159465
-1.02562e-06
0.000159647
-7.37949e-07
0.000159766
-4.13136e-07
0.000159814
-4.47743e-08
0.000159785
3.75001e-07
0.000159672
8.5587e-07
0.000159467
1.41005e-06
0.000159163
2.05269e-06
0.000158755
2.80258e-06
0.00015824
3.68288e-06
0.000157623
4.72179e-06
0.00015692
5.95276e-06
0.000156165
7.41361e-06
0.000155423
9.1432e-06
0.000154805
1.11728e-05
0.000154481
1.35078e-05
0.000154679
1.60918e-05
0.000155629
1.87467e-05
2.10944e-05
0.000157355
0.00013066
-4.69188e-07
0.000130828
-8.9127e-07
0.000131067
-1.25211e-06
0.000131367
-1.5659e-06
0.000131721
-1.84236e-06
0.000132123
-2.08828e-06
0.000132568
-2.30846e-06
0.000133053
-2.50669e-06
0.000133572
-2.68592e-06
0.000134122
-2.84848e-06
0.000134702
-2.99625e-06
0.000135307
-3.13072e-06
0.000135936
-3.25311e-06
0.000136586
-3.36441e-06
0.000137256
-3.4654e-06
0.000137944
-3.55676e-06
0.000138647
-3.63905e-06
0.000139364
-3.71276e-06
0.000140093
-3.77837e-06
0.000140834
-3.83633e-06
0.000141583
-3.88713e-06
0.000142341
-3.93123e-06
0.000143106
-3.96914e-06
0.000143877
-4.00137e-06
0.000144652
-4.02846e-06
0.000145431
-4.0509e-06
0.000146213
-4.06919e-06
0.000146997
-4.08378e-06
0.000147783
-4.09507e-06
0.00014857
-4.10342e-06
0.000149357
-4.10908e-06
0.000150144
-4.11226e-06
0.000150931
-4.11306e-06
0.000151716
-4.11153e-06
0.0001525
-4.10764e-06
0.000153282
-4.10127e-06
0.000154062
-4.09225e-06
0.000154838
-4.08035e-06
0.000155611
-4.06531e-06
0.000156379
-4.04678e-06
0.000157142
-4.02441e-06
0.0001579
-3.99781e-06
0.00015865
-3.96655e-06
0.000159393
-3.93018e-06
0.000160127
-3.88821e-06
0.000160851
-3.84014e-06
0.000161564
-3.78544e-06
0.000162265
-3.72352e-06
0.000162951
-3.65378e-06
0.000163622
-3.57554e-06
0.000164276
-3.48809e-06
0.000164911
-3.39061e-06
0.000165525
-3.28223e-06
0.000166117
-3.16195e-06
0.000166683
-3.02865e-06
0.000167222
-2.88104e-06
0.000167731
-2.71765e-06
0.000168207
-2.53679e-06
0.000168648
-2.33648e-06
0.00016905
-2.1144e-06
0.000169409
-1.86785e-06
0.000169722
-1.59361e-06
0.000169986
-1.28788e-06
0.000170195
-9.4613e-07
0.000170346
-5.62952e-07
0.000170434
-1.31918e-07
0.000170456
3.54561e-07
0.000170407
9.05511e-07
0.000170286
1.53189e-06
0.000170093
2.24666e-06
0.000169832
3.06501e-06
0.000169511
4.00434e-06
0.00016915
5.08399e-06
0.00016878
6.32426e-06
0.00016845
7.74428e-06
0.000168236
9.35787e-06
0.000168244
1.1166e-05
0.000168608
1.31444e-05
0.000169477
1.52241e-05
0.000170957
1.72676e-05
1.90516e-05
0.000173
0.000139809
-5.56965e-07
0.000139984
-1.06666e-06
0.000140234
-1.50195e-06
0.00014055
-1.88113e-06
0.000140923
-2.21532e-06
0.000141348
-2.51249e-06
0.000141818
-2.77847e-06
0.00014233
-3.01783e-06
0.000142879
-3.23414e-06
0.000143461
-3.43022e-06
0.000144074
-3.60834e-06
0.000144715
-3.77033e-06
0.00014538
-3.91766e-06
0.000146068
-4.05152e-06
0.000146777
-4.17289e-06
0.000147504
-4.28257e-06
0.000148247
-4.38124e-06
0.000149005
-4.46951e-06
0.000149776
-4.54796e-06
0.000150558
-4.61714e-06
0.00015135
-4.67762e-06
0.00015215
-4.72998e-06
0.000152957
-4.77482e-06
0.00015377
-4.81277e-06
0.000154588
-4.84446e-06
0.000155409
-4.8705e-06
0.000156233
-4.89149e-06
0.000157058
-4.90797e-06
0.000157885
-4.92044e-06
0.000158713
-4.92931e-06
0.00015954
-4.93491e-06
0.000160367
-4.93747e-06
0.000161193
-4.93715e-06
0.000162017
-4.934e-06
0.000162839
-4.92796e-06
0.000163658
-4.91893e-06
0.000164474
-4.9067e-06
0.000165286
-4.89101e-06
0.000166094
-4.87151e-06
0.000166897
-4.84784e-06
0.000167694
-4.81956e-06
0.000168484
-4.78621e-06
0.000169266
-4.74728e-06
0.000170039
-4.70226e-06
0.000170803
-4.65056e-06
0.000171556
-4.59161e-06
0.000172297
-4.52476e-06
0.000173025
-4.44937e-06
0.000173737
-4.36472e-06
0.000174433
-4.27004e-06
0.000175111
-4.16451e-06
0.000175769
-4.04722e-06
0.000176405
-3.91719e-06
0.000177018
-3.77329e-06
0.000177605
-3.6143e-06
0.000178164
-3.4388e-06
0.000178693
-3.2452e-06
0.000179189
-3.03169e-06
0.00017965
-2.79617e-06
0.000180073
-2.53623e-06
0.000180456
-2.24908e-06
0.000180795
-1.93148e-06
0.000181088
-1.57964e-06
0.000181332
-1.18919e-06
0.000181525
-7.55022e-07
0.000181666
-2.71235e-07
0.000181752
2.68857e-07
0.000181786
8.72767e-07
0.00018177
1.54919e-06
0.00018171
2.30786e-06
0.000181617
3.15931e-06
0.000181508
4.11444e-06
0.000181409
5.18378e-06
0.000181358
6.37609e-06
0.000181407
7.69621e-06
0.000181624
9.1417e-06
0.000182093
1.0698e-05
0.000182907
1.23315e-05
0.00018415
1.39822e-05
0.000185862
1.55563e-05
1.69284e-05
0.000187987
0.000149598
-6.47606e-07
0.000149781
-1.24935e-06
0.000150042
-1.76334e-06
0.000150373
-2.21186e-06
0.000150766
-2.60741e-06
0.000151213
-2.9591e-06
0.000151709
-3.2738e-06
0.000152248
-3.55687e-06
0.000152827
-3.81254e-06
0.000153442
-4.04416e-06
0.000154089
-4.25441e-06
0.000154765
-4.44549e-06
0.000155468
-4.61912e-06
0.000156194
-4.77674e-06
0.000156942
-4.9195e-06
0.000157709
-5.04836e-06
0.000158493
-5.16413e-06
0.000159292
-5.26755e-06
0.000160105
-5.35928e-06
0.000160929
-5.44e-06
0.000161763
-5.51037e-06
0.000162606
-5.57108e-06
0.000163456
-5.62285e-06
0.000164311
-5.66641e-06
0.00016517
-5.70251e-06
0.000166033
-5.73187e-06
0.000166899
-5.75521e-06
0.000167766
-5.77316e-06
0.000168633
-5.78632e-06
0.000169501
-5.79517e-06
0.000170368
-5.8001e-06
0.000171233
-5.80141e-06
0.000172097
-5.79927e-06
0.000172959
-5.79376e-06
0.000173817
-5.78482e-06
0.000174672
-5.77233e-06
0.000175523
-5.75605e-06
0.00017637
-5.73569e-06
0.000177211
-5.71086e-06
0.000178046
-5.68112e-06
0.000178874
-5.64598e-06
0.000179694
-5.60491e-06
0.000180506
-5.55734e-06
0.000181308
-5.50265e-06
0.0001821
-5.44021e-06
0.000182879
-5.36935e-06
0.000183645
-5.28935e-06
0.000184397
-5.19947e-06
0.000185133
-5.09892e-06
0.000185851
-4.98685e-06
0.00018655
-4.86236e-06
0.000187229
-4.72447e-06
0.000187886
-4.5721e-06
0.000188518
-4.40407e-06
0.000189124
-4.21907e-06
0.000189702
-4.01564e-06
0.000190251
-3.79213e-06
0.000190767
-3.5467e-06
0.00019125
-3.27727e-06
0.000191696
-2.98147e-06
0.000192105
-2.6566e-06
0.000192475
-2.29961e-06
0.000192803
-1.90705e-06
0.00019309
-1.475e-06
0.000193336
-9.99056e-07
0.00019354
-4.74309e-07
0.000193705
1.04596e-07
0.000193836
7.43183e-07
0.000193939
1.44728e-06
0.000194025
2.22306e-06
0.000194109
3.07639e-06
0.000194213
4.01228e-06
0.000194363
5.03406e-06
0.000194598
6.14212e-06
0.000194963
7.33236e-06
0.000195512
8.59409e-06
0.000196304
9.90748e-06
0.000197395
1.12409e-05
0.00019883
1.25488e-05
0.000200616
1.37714e-05
1.48399e-05
0.000202705
0.000160072
-7.41221e-07
0.000160262
-1.43926e-06
0.000160536
-2.0362e-06
0.000160882
-2.55798e-06
0.000161294
-3.01855e-06
0.000161763
-3.42809e-06
0.000162284
-3.79447e-06
0.000162852
-4.1239e-06
0.000163462
-4.42127e-06
0.000164109
-4.6905e-06
0.00016479
-4.93472e-06
0.000165502
-5.15646e-06
0.000166242
-5.35777e-06
0.000167006
-5.54033e-06
0.000167794
-5.70549e-06
0.000168601
-5.85436e-06
0.000169426
-5.98791e-06
0.000170267
-6.107e-06
0.000171122
-6.21242e-06
0.000171988
-6.30493e-06
0.000172865
-6.38532e-06
0.000173749
-6.4544e-06
0.000174641
-6.513e-06
0.000175538
-6.56198e-06
0.00017644
-6.60219e-06
0.000177344
-6.6345e-06
0.00017825
-6.65971e-06
0.000179158
-6.67859e-06
0.000180065
-6.69181e-06
0.000180972
-6.69996e-06
0.000181877
-6.7035e-06
0.00018278
-6.70277e-06
0.000183681
-6.69798e-06
0.000184578
-6.68923e-06
0.000185471
-6.67648e-06
0.000186361
-6.65958e-06
0.000187245
-6.63829e-06
0.000188123
-6.61225e-06
0.000188995
-6.58106e-06
0.00018986
-6.54421e-06
0.000190717
-6.50116e-06
0.000191565
-6.4513e-06
0.000192404
-6.394e-06
0.000193231
-6.32858e-06
0.000194047
-6.25432e-06
0.00019485
-6.17049e-06
0.000195639
-6.0763e-06
0.000196412
-5.97096e-06
0.000197168
-5.85359e-06
0.000197907
-5.7233e-06
0.000198625
-5.57913e-06
0.000199322
-5.42005e-06
0.000199997
-5.24494e-06
0.000200647
-5.0526e-06
0.000201271
-4.84171e-06
0.000201868
-4.61082e-06
0.000202435
-4.35832e-06
0.000202973
-4.08246e-06
0.000203478
-3.78127e-06
0.000203951
-3.45258e-06
0.00020439
-3.09398e-06
0.000204794
-2.70282e-06
0.000205165
-2.27618e-06
0.000205502
-1.8109e-06
0.000205808
-1.30356e-06
0.000206085
-7.50554e-07
0.000206339
-1.48117e-07
0.000206577
5.07259e-07
0.000206807
1.2185e-06
0.000207043
1.9884e-06
0.000207301
2.81887e-06
0.000207604
3.71037e-06
0.000207978
4.66125e-06
0.000208455
5.66691e-06
0.000209069
6.71887e-06
0.000209861
7.80375e-06
0.000210867
8.90235e-06
0.00021212
9.98904e-06
0.000213638
1.10319e-05
0.000215417
1.19941e-05
1.28386e-05
0.000217419
0.00017128
-8.37907e-07
0.000171478
-1.63631e-06
0.000171762
-2.32039e-06
0.000172124
-2.91932e-06
0.000172554
-3.44856e-06
0.000173046
-3.91929e-06
0.000173593
-4.34035e-06
0.000174188
-4.71881e-06
0.000174828
-5.06027e-06
0.000175508
-5.3692e-06
0.000176223
-5.64921e-06
0.000176971
-5.90321e-06
0.000177748
-6.13359e-06
0.000178551
-6.34225e-06
0.000179378
-6.53077e-06
0.000180225
-6.70046e-06
0.000181091
-6.85243e-06
0.000181973
-6.98766e-06
0.00018287
-7.10708e-06
0.000183778
-7.21158e-06
0.000184696
-7.30205e-06
0.000185623
-7.37943e-06
0.000186556
-7.44467e-06
0.000187495
-7.49876e-06
0.000188437
-7.54268e-06
0.000189382
-7.57742e-06
0.000190328
-7.60392e-06
0.000191275
-7.62305e-06
0.00019222
-7.63559e-06
0.000193165
-7.64222e-06
0.000194106
-7.64348e-06
0.000195045
-7.63978e-06
0.000195981
-7.63136e-06
0.000196912
-7.61835e-06
0.000197838
-7.60072e-06
0.000198759
-7.57833e-06
0.000199674
-7.5509e-06
0.000200581
-7.51806e-06
0.000201482
-7.47935e-06
0.000202374
-7.43423e-06
0.000203256
-7.3821e-06
0.000204129
-7.32229e-06
0.000204991
-7.25411e-06
0.000205842
-7.17682e-06
0.000206679
-7.08966e-06
0.000207502
-6.99181e-06
0.00020831
-6.88245e-06
0.000209102
-6.76072e-06
0.000209876
-6.62573e-06
0.000210631
-6.47654e-06
0.000211366
-6.31217e-06
0.000212079
-6.13158e-06
0.000212769
-5.93366e-06
0.000213436
-5.71725e-06
0.000214077
-5.48107e-06
0.000214691
-5.22377e-06
0.000215278
-4.94387e-06
0.000215837
-4.63979e-06
0.000216368
-4.30982e-06
0.000216869
-3.95211e-06
0.000217341
-3.56469e-06
0.000217785
-3.14548e-06
0.000218203
-2.69227e-06
0.000218596
-2.20282e-06
0.000218969
-1.67484e-06
0.000219326
-1.10614e-06
0.000219674
-4.94658e-07
0.000220021
1.61363e-07
0.000220378
8.62566e-07
0.000220759
1.60876e-06
0.000221181
2.39896e-06
0.000221662
3.23064e-06
0.000222225
4.0993e-06
0.000222895
4.99805e-06
0.000223698
5.91719e-06
0.000224659
6.84388e-06
0.000225801
7.76204e-06
0.000227138
8.65257e-06
0.000228677
9.49412e-06
0.000230408
1.02647e-05
1.09441e-05
0.000232304
0.000183273
-9.37731e-07
0.000183478
-1.84041e-06
0.000183773
-2.61574e-06
0.00018415
-3.29565e-06
0.000184599
-3.89715e-06
0.000185113
-4.43237e-06
0.000185684
-4.91111e-06
0.000186307
-5.34129e-06
0.000186977
-5.72921e-06
0.000187689
-6.07993e-06
0.000188438
-6.39755e-06
0.000189222
-6.6854e-06
0.000190036
-6.94617e-06
0.000190877
-7.18206e-06
0.000191742
-7.39489e-06
0.000192629
-7.58614e-06
0.000193536
-7.75709e-06
0.000194458
-7.90888e-06
0.000195396
-8.04255e-06
0.000196345
-8.15913e-06
0.000197304
-8.25965e-06
0.000198272
-8.34516e-06
0.000199246
-8.41675e-06
0.000200225
-8.47553e-06
0.000201206
-8.52265e-06
0.00020219
-8.5592e-06
0.000203175
-8.58626e-06
0.000204158
-8.60483e-06
0.000205141
-8.6158e-06
0.00020612
-8.61995e-06
0.000207097
-8.61791e-06
0.000208069
-8.61014e-06
0.000209037
-8.59696e-06
0.00021
-8.57852e-06
0.000210956
-8.55481e-06
0.000211905
-8.52569e-06
0.000212847
-8.49087e-06
0.000213781
-8.44996e-06
0.000214707
-8.40247e-06
0.000215622
-8.34782e-06
0.000216528
-8.28535e-06
0.000217422
-8.21436e-06
0.000218304
-8.1341e-06
0.000219173
-8.0438e-06
0.000220028
-7.94262e-06
0.000220868
-7.82974e-06
0.000221692
-7.70429e-06
0.000222498
-7.56538e-06
0.000223287
-7.41212e-06
0.000224056
-7.24355e-06
0.000224804
-7.05872e-06
0.000225531
-6.85662e-06
0.000226235
-6.63622e-06
0.000226916
-6.39641e-06
0.000227573
-6.13605e-06
0.000228205
-5.85396e-06
0.000228812
-5.54886e-06
0.000229393
-5.21946e-06
0.00022995
-4.86438e-06
0.000230482
-4.48222e-06
0.00023099
-4.07155e-06
0.000231477
-3.63094e-06
0.000231946
-3.15901e-06
0.000232399
-2.65446e-06
0.000232842
-2.11618e-06
0.00023328
-1.54329e-06
0.000233722
-9.35261e-07
0.000234177
-2.91932e-07
0.000234655
3.85977e-07
0.000235169
1.09622e-06
0.000235734
1.83578e-06
0.000236366
2.60051e-06
0.000237081
3.38475e-06
0.0002379
4.18117e-06
0.000238838
4.98064e-06
0.000239911
5.7723e-06
0.00024113
6.54376e-06
0.000242502
7.28154e-06
0.000244026
7.9718e-06
0.000245691
8.60146e-06
9.15984e-06
0.000247476
0.000196106
-1.04071e-06
0.000196317
-2.05139e-06
0.000196624
-2.92195e-06
0.000197015
-3.68656e-06
0.000197482
-4.36384e-06
0.000198017
-4.9668e-06
0.000198613
-5.50617e-06
0.000199263
-5.99071e-06
0.000199963
-6.42742e-06
0.000200706
-6.82199e-06
0.000201488
-7.17901e-06
0.000202306
-7.50223e-06
0.000203156
-7.7947e-06
0.000204035
-8.05891e-06
0.000204938
-8.2969e-06
0.000205864
-8.51039e-06
0.000206809
-8.70081e-06
0.000207772
-8.86948e-06
0.000208748
-9.01756e-06
0.000209737
-9.14624e-06
0.000210736
-9.25666e-06
0.000211743
-9.35002e-06
0.000212756
-9.42754e-06
0.000213773
-9.4905e-06
0.000214792
-9.54015e-06
0.000215813
-9.57775e-06
0.000216834
-9.60452e-06
0.000217853
-9.62157e-06
0.000218869
-9.62994e-06
0.000219882
-9.63051e-06
0.00022089
-9.62399e-06
0.000221893
-9.61093e-06
0.00022289
-9.59171e-06
0.00022388
-9.56652e-06
0.000224863
-9.53538e-06
0.000225838
-9.49816e-06
0.000226804
-9.45458e-06
0.000227761
-9.40422e-06
0.000228707
-9.34658e-06
0.000229642
-9.28103e-06
0.000230566
-9.20691e-06
0.000231478
-9.12346e-06
0.000232376
-9.02991e-06
0.000233259
-8.92544e-06
0.000234128
-8.8092e-06
0.000234981
-8.68035e-06
0.000235817
-8.538e-06
0.000236635
-8.38127e-06
0.000237434
-8.20927e-06
0.000238214
-8.02111e-06
0.000238973
-7.81586e-06
0.000239711
-7.59261e-06
0.000240427
-7.35042e-06
0.000241121
-7.08835e-06
0.000241793
-6.80542e-06
0.000242441
-6.50068e-06
0.000243067
-6.17315e-06
0.000243672
-5.82186e-06
0.000244255
-5.44586e-06
0.000244819
-5.04424e-06
0.000245365
-4.61617e-06
0.000245897
-4.16091e-06
0.000246418
-3.67788e-06
0.000246932
-3.1667e-06
0.000247444
-2.62728e-06
0.000247963
-2.05988e-06
0.000248494
-1.4652e-06
0.000249048
-8.44391e-07
0.000249635
-1.99029e-07
0.000250265
4.68049e-07
0.000250949
1.15255e-06
0.000251702
1.84957e-06
0.000252535
2.5534e-06
0.00025346
3.2573e-06
0.000254489
3.95353e-06
0.000255629
4.63359e-06
0.000256886
5.28842e-06
0.00025826
5.90883e-06
0.000259747
6.48605e-06
0.000261337
7.01241e-06
7.48239e-06
0.000263016
0.000209837
-1.1468e-06
0.000210055
-2.26901e-06
0.000210372
-3.23861e-06
0.000210777
-4.09153e-06
0.000211262
-4.84794e-06
0.000211818
-5.52179e-06
0.000212437
-6.12465e-06
0.000213113
-6.66609e-06
0.000213841
-7.15387e-06
0.000214614
-7.59427e-06
0.000215429
-7.99241e-06
0.00021628
-8.35245e-06
0.000217165
-8.67783e-06
0.000218079
-8.97135e-06
0.000219019
-9.23529e-06
0.000219982
-9.4716e-06
0.000220965
-9.68189e-06
0.000221965
-9.86764e-06
0.000222979
-1.00302e-05
0.000224006
-1.01709e-05
0.000225042
-1.02909e-05
0.000226086
-1.03917e-05
0.000227135
-1.04747e-05
0.000228188
-1.05411e-05
0.000229243
-1.05925e-05
0.000230297
-1.06303e-05
0.000231351
-1.06557e-05
0.000232402
-1.06702e-05
0.000233449
-1.06748e-05
0.000234492
-1.06705e-05
0.000235528
-1.06582e-05
0.000236558
-1.06385e-05
0.000237581
-1.06118e-05
0.000238595
-1.05784e-05
0.0002396
-1.05383e-05
0.000240596
-1.04915e-05
0.000241582
-1.04377e-05
0.000242556
-1.03764e-05
0.00024352
-1.03072e-05
0.00024447
-1.02293e-05
0.000245408
-1.01422e-05
0.000246332
-1.0045e-05
0.000247241
-9.93695e-06
0.000248136
-9.81721e-06
0.000249014
-9.68494e-06
0.000249875
-9.53928e-06
0.000250719
-9.37937e-06
0.000251544
-9.20437e-06
0.00025235
-9.01342e-06
0.000253137
-8.80571e-06
0.000253904
-8.58041e-06
0.00025465
-8.33671e-06
0.000255376
-8.07385e-06
0.000256081
-7.79106e-06
0.000256765
-7.4876e-06
0.000257429
-7.16279e-06
0.000258074
-6.81598e-06
0.000258701
-6.44658e-06
0.000259311
-6.0541e-06
0.000259907
-5.63813e-06
0.000260491
-5.19843e-06
0.000261067
-4.73491e-06
0.000261639
-4.24771e-06
0.000262211
-3.73722e-06
0.00026279
-3.20418e-06
0.000263382
-2.6497e-06
0.000263993
-2.07533e-06
0.000264634
-1.48306e-06
0.000265312
-8.75363e-07
0.000266037
-2.54944e-07
0.000266817
3.74283e-07
0.000267661
1.00723e-06
0.000268577
1.63832e-06
0.000269574
2.26192e-06
0.000270658
2.87187e-06
0.000271831
3.46184e-06
0.000273095
4.02543e-06
0.000274449
4.55655e-06
0.000275887
5.04974e-06
0.0002774
5.50056e-06
5.90633e-06
0.000278978
0.00022453
-1.25589e-06
0.000224754
-2.49292e-06
0.000225081
-3.56513e-06
0.000225499
-4.50976e-06
0.000226
-5.34851e-06
0.000226576
-6.09622e-06
0.000227217
-6.76527e-06
0.000227918
-7.36605e-06
0.000228672
-7.90704e-06
0.000229474
-8.39515e-06
0.000230319
-8.83599e-06
0.000231202
-9.23422e-06
0.00023212
-9.59362e-06
0.000233067
-9.91731e-06
0.000234042
-1.02079e-05
0.000235039
-1.04674e-05
0.000236057
-1.06979e-05
0.000237092
-1.09008e-05
0.000238142
-1.10777e-05
0.000239203
-1.12301e-05
0.000240274
-1.13595e-05
0.000241352
-1.14672e-05
0.000242434
-1.15548e-05
0.000243519
-1.1624e-05
0.000244606
-1.16762e-05
0.000245691
-1.17131e-05
0.000246774
-1.17361e-05
0.000247853
-1.17467e-05
0.000248927
-1.17462e-05
0.000249994
-1.17357e-05
0.000251055
-1.17161e-05
0.000252107
-1.16882e-05
0.000253151
-1.16525e-05
0.000254184
-1.16093e-05
0.000255207
-1.15588e-05
0.000256219
-1.15008e-05
0.000257219
-1.14351e-05
0.000258207
-1.13614e-05
0.000259181
-1.1279e-05
0.000260142
-1.11874e-05
0.000261088
-1.10859e-05
0.00026202
-1.09737e-05
0.000262935
-1.085e-05
0.000263835
-1.0714e-05
0.000264717
-1.05648e-05
0.000265582
-1.04017e-05
0.000266429
-1.02237e-05
0.000267257
-1.00302e-05
0.000268067
-9.82038e-06
0.000268857
-9.59346e-06
0.000269628
-9.34878e-06
0.000270379
-9.08569e-06
0.000271111
-8.80361e-06
0.000271824
-8.50199e-06
0.000272519
-8.18037e-06
0.000273197
-7.83835e-06
0.000273859
-7.47564e-06
0.000274507
-7.09205e-06
0.000275142
-6.6875e-06
0.000275768
-6.26209e-06
0.000276388
-5.81608e-06
0.000277005
-5.34995e-06
0.000277624
-4.86442e-06
0.000278249
-4.36047e-06
0.000278886
-3.83943e-06
0.000279542
-3.30296e-06
0.000280221
-2.75309e-06
0.000280932
-2.19224e-06
0.000281682
-1.6232e-06
0.000282478
-1.04906e-06
0.000283327
-4.72955e-07
0.000284235
1.01325e-07
0.000285206
6.6902e-07
0.000286245
1.22507e-06
0.000287354
1.76465e-06
0.000288534
2.28323e-06
0.000289785
2.7764e-06
0.000291103
3.24019e-06
0.000292483
3.67124e-06
0.000293918
4.06709e-06
4.42659e-06
0.000295399
0.000240251
-1.36777e-06
0.00024048
-2.72262e-06
0.000240816
-3.90071e-06
0.000241247
-4.9402e-06
0.000241764
-5.86423e-06
0.000242357
-6.68854e-06
0.000243019
-7.4263e-06
0.000243742
-8.08867e-06
0.000244521
-8.68485e-06
0.00024535
-9.22235e-06
0.000246223
-9.70736e-06
0.000247135
-1.0145e-05
0.000248082
-1.05393e-05
0.000249061
-1.08939e-05
0.000250066
-1.12116e-05
0.000251095
-1.14947e-05
0.000252145
-1.17454e-05
0.000253212
-1.19655e-05
0.000254293
-1.21566e-05
0.000255385
-1.23203e-05
0.000256486
-1.24583e-05
0.000257594
-1.25722e-05
0.000258705
-1.26638e-05
0.000259819
-1.27346e-05
0.000260932
-1.27866e-05
0.000262043
-1.28214e-05
0.00026315
-1.28407e-05
0.000264252
-1.28461e-05
0.000265347
-1.2839e-05
0.000266435
-1.28207e-05
0.000267514
-1.27922e-05
0.000268583
-1.27545e-05
0.000269642
-1.27082e-05
0.000270689
-1.26535e-05
0.000271724
-1.25908e-05
0.000272746
-1.252e-05
0.000273754
-1.24409e-05
0.000274749
-1.23531e-05
0.000275729
-1.22561e-05
0.000276693
-1.21493e-05
0.000277642
-1.20321e-05
0.000278575
-1.19037e-05
0.000279491
-1.17632e-05
0.00028039
-1.161e-05
0.000281271
-1.14432e-05
0.000282134
-1.12621e-05
0.000282979
-1.10659e-05