/*--------------------------------*- C++ -*----------------------------------*\
| =========                 |                                                 |
| \\      /  F ield         | OpenFOAM: The Open Source CFD Toolbox           |
|  \\    /   O peration     | Version:  2106                                  |
|   \\  /    A nd           | Website:  www.openfoam.com                      |
|    \\/     M anipulation  |                                                 |
\*---------------------------------------------------------------------------*/
FoamFile
{
    version     2.0;
    format      ascii;
    arch        "LSB;label=32;scalar=64";
    class       volScalarField;
    location    "3";
    object      T;
}
// * * * * * * * * * * * * * * * * * * * * * * * * * * * * * * * * * * * * * //

dimensions      [0 0 0 1 0 0 0];

internalField   nonuniform List<scalar> 
12013
(
300.002
300.007
300.011
300.016
300.021
300.027
300.032
300.038
300.045
300.051
300.058
300.066
300.074
300.082
300.091
300.1
300.11
300.12
300.13
300.142
300.153
300.166
300.179
300.192
300.206
300.221
300.237
300.253
300.27
300.287
300.305
300.324
300.344
300.364
300.385
300.407
300.43
300.453
300.477
300.502
300.528
300.555
300.583
300.611
300.641
300.671
300.703
300.735
300.768
300.802
300.838
300.874
300.911
300.95
300.99
301.03
301.072
301.116
301.16
301.206
301.253
301.302
301.352
301.404
301.457
301.512
301.569
301.628
301.69
301.753
301.819
301.889
301.961
302.037
302.117
302.202
302.292
302.391
302.5
302.623
302.769
300.002
300.007
300.011
300.016
300.021
300.027
300.032
300.038
300.045
300.051
300.058
300.066
300.074
300.082
300.091
300.1
300.11
300.12
300.13
300.142
300.153
300.166
300.179
300.192
300.206
300.221
300.237
300.253
300.269
300.287
300.305
300.324
300.344
300.364
300.385
300.407
300.43
300.453
300.477
300.502
300.528
300.555
300.583
300.611
300.641
300.671
300.702
300.735
300.768
300.802
300.838
300.874
300.911
300.95
300.989
301.03
301.072
301.115
301.16
301.205
301.253
301.301
301.351
301.403
301.456
301.511
301.568
301.627
301.688
301.752
301.818
301.886
301.958
302.034
302.113
302.197
302.286
302.382
302.487
302.601
302.727
300.002
300.007
300.011
300.016
300.021
300.027
300.032
300.038
300.045
300.051
300.058
300.066
300.074
300.082
300.091
300.1
300.11
300.12
300.13
300.142
300.153
300.166
300.179
300.192
300.206
300.221
300.237
300.253
300.269
300.287
300.305
300.324
300.343
300.364
300.385
300.407
300.429
300.453
300.477
300.502
300.528
300.555
300.583
300.611
300.641
300.671
300.702
300.734
300.768
300.802
300.837
300.873
300.911
300.949
300.989
301.029
301.071
301.114
301.159
301.205
301.252
301.3
301.35
301.402
301.455
301.51
301.566
301.625
301.686
301.749
301.814
301.882
301.953
302.027
302.105
302.187
302.273
302.365
302.463
302.566
302.673
300.002
300.007
300.011
300.016
300.021
300.027
300.032
300.038
300.045
300.051
300.058
300.066
300.074
300.082
300.091
300.1
300.109
300.12
300.13
300.142
300.153
300.166
300.179
300.192
300.206
300.221
300.237
300.253
300.269
300.287
300.305
300.324
300.343
300.364
300.385
300.407
300.429
300.453
300.477
300.502
300.528
300.555
300.582
300.611
300.64
300.67
300.702
300.734
300.767
300.801
300.836
300.873
300.91
300.948
300.988
301.028
301.07
301.113
301.157
301.203
301.25
301.298
301.348
301.399
301.452
301.506
301.563
301.621
301.681
301.743
301.808
301.875
301.944
302.017
302.092
302.171
302.254
302.34
302.43
302.522
302.615
300.002
300.007
300.011
300.016
300.021
300.027
300.032
300.038
300.045
300.051
300.058
300.066
300.074
300.082
300.091
300.1
300.109
300.12
300.13
300.142
300.153
300.166
300.179
300.192
300.206
300.221
300.236
300.252
300.269
300.287
300.305
300.324
300.343
300.363
300.384
300.406
300.429
300.452
300.477
300.502
300.527
300.554
300.582
300.61
300.64
300.67
300.701
300.733
300.766
300.8
300.835
300.872
300.909
300.947
300.986
301.027
301.068
301.111
301.155
301.201
301.247
301.295
301.345
301.395
301.448
301.502
301.557
301.615
301.674
301.735
301.799
301.864
301.932
302.003
302.075
302.151
302.229
302.309
302.391
302.474
302.556
300.002
300.007
300.011
300.016
300.021
300.027
300.032
300.038
300.045
300.051
300.058
300.066
300.074
300.082
300.091
300.1
300.109
300.12
300.13
300.141
300.153
300.166
300.178
300.192
300.206
300.221
300.236
300.252
300.269
300.286
300.304
300.323
300.343
300.363
300.384
300.406
300.429
300.452
300.476
300.501
300.527
300.554
300.581
300.609
300.639
300.669
300.7
300.732
300.765
300.799
300.834
300.87
300.907
300.945
300.984
301.025
301.066
301.109
301.152
301.197
301.244
301.291
301.34
301.39
301.442
301.496
301.55
301.607
301.665
301.725
301.787
301.851
301.916
301.984
302.054
302.125
302.198
302.273
302.348
302.423
302.497
300.002
300.007
300.011
300.016
300.021
300.027
300.032
300.038
300.045
300.051
300.058
300.066
300.074
300.082
300.09
300.1
300.109
300.119
300.13
300.141
300.153
300.165
300.178
300.192
300.206
300.221
300.236
300.252
300.269
300.286
300.304
300.323
300.342
300.363
300.384
300.405
300.428
300.451
300.475
300.5
300.526
300.553
300.58
300.608
300.638
300.668
300.699
300.731
300.764
300.797
300.832
300.868
300.905
300.943
300.982
301.022
301.063
301.105
301.148
301.193
301.239
301.286
301.334
301.384
301.435
301.487
301.541
301.597
301.654
301.712
301.772
301.834
301.897
301.961
302.028
302.095
302.163
302.232
302.301
302.369
302.436
300.002
300.007
300.011
300.016
300.021
300.027
300.032
300.038
300.045
300.051
300.058
300.066
300.073
300.082
300.09
300.1
300.109
300.119
300.13
300.141
300.153
300.165
300.178
300.192
300.206
300.22
300.236
300.252
300.268
300.286
300.304
300.322
300.342
300.362
300.383
300.405
300.427
300.451
300.475
300.499
300.525
300.552
300.579
300.607
300.636
300.666
300.697
300.729
300.762
300.795
300.83
300.865
300.902
300.94
300.978
301.018
301.059
301.101
301.143
301.188
301.233
301.279
301.327
301.376
301.426
301.477
301.53
301.584
301.639
301.696
301.754
301.813
301.874
301.935
301.997
302.061
302.124
302.188
302.251
302.314
302.375
300.002
300.007
300.011
300.016
300.021
300.027
300.032
300.038
300.044
300.051
300.058
300.066
300.073
300.082
300.09
300.099
300.109
300.119
300.13
300.141
300.153
300.165
300.178
300.191
300.205
300.22
300.235
300.251
300.268
300.285
300.303
300.322
300.341
300.361
300.382
300.404
300.426
300.45
300.473
300.498
300.524
300.55
300.577
300.606
300.634
300.664
300.695
300.727
300.759
300.793
300.827
300.862
300.898
300.936
300.974
301.013
301.054
301.095
301.137
301.181
301.225
301.271
301.318
301.366
301.415
301.465
301.516
301.569
301.622
301.677
301.733
301.789
301.847
301.905
301.964
302.023
302.082
302.141
302.2
302.257
302.314
300.002
300.007
300.011
300.016
300.021
300.026
300.032
300.038
300.044
300.051
300.058
300.065
300.073
300.081
300.09
300.099
300.109
300.119
300.13
300.141
300.152
300.165
300.177
300.191
300.205
300.22
300.235
300.251
300.267
300.285
300.303
300.321
300.34
300.361
300.381
300.403
300.425
300.448
300.472
300.497
300.522
300.549
300.576
300.604
300.632
300.662
300.692
300.724
300.756
300.789
300.823
300.858
300.894
300.931
300.969
301.008
301.047
301.088
301.13
301.173
301.216
301.261
301.307
301.354
301.401
301.45
301.5
301.551
301.602
301.655
301.708
301.762
301.816
301.871
301.927
301.982
302.037
302.092
302.146
302.2
302.252
300.002
300.007
300.011
300.016
300.021
300.026
300.032
300.038
300.044
300.051
300.058
300.065
300.073
300.081
300.09
300.099
300.109
300.119
300.129
300.14
300.152
300.164
300.177
300.19
300.204
300.219
300.234
300.25
300.267
300.284
300.302
300.32
300.34
300.359
300.38
300.402
300.424
300.447
300.471
300.495
300.52
300.546
300.573
300.601
300.63
300.659
300.689
300.72
300.752
300.785
300.819
300.853
300.889
300.925
300.962
301.001
301.04
301.08
301.121
301.163
301.205
301.249
301.294
301.339
301.386
301.433
301.481
301.53
301.579
301.629
301.68
301.731
301.783
301.835
301.886
301.938
301.99
302.041
302.091
302.14
302.189
300.002
300.007
300.011
300.016
300.021
300.026
300.032
300.038
300.044
300.051
300.058
300.065
300.073
300.081
300.09
300.099
300.108
300.118
300.129
300.14
300.152
300.164
300.177
300.19
300.204
300.218
300.234
300.249
300.266
300.283
300.301
300.319
300.338
300.358
300.379
300.4
300.422
300.445
300.469
300.493
300.518
300.544
300.571
300.598
300.626
300.655
300.685
300.716
300.748
300.78
300.813
300.847
300.882
300.918
300.955
300.992
301.031
301.07
301.11
301.151
301.193
301.235
301.279
301.323
301.367
301.413
301.459
301.506
301.553
301.601
301.649
301.698
301.746
301.795
301.843
301.892
301.94
301.987
302.034
302.08
302.125
300.002
300.007
300.011
300.016
300.021
300.026
300.032
300.038
300.044
300.051
300.058
300.065
300.073
300.081
300.089
300.098
300.108
300.118
300.129
300.14
300.151
300.163
300.176
300.189
300.203
300.218
300.233
300.248
300.265
300.282
300.299
300.318
300.337
300.357
300.377
300.398
300.42
300.443
300.466
300.49
300.515
300.541
300.567
300.594
300.622
300.651
300.681
300.711
300.742
300.774
300.807
300.841
300.875
300.91
300.946
300.983
301.02
301.059
301.098
301.137
301.178
301.219
301.261
301.304
301.347
301.39
301.435
301.479
301.524
301.57
301.615
301.661
301.707
301.753
301.798
301.843
301.888
301.932
301.976
302.018
302.06
300.002
300.007
300.011
300.016
300.021
300.026
300.032
300.038
300.044
300.05
300.057
300.065
300.072
300.081
300.089
300.098
300.108
300.118
300.128
300.139
300.151
300.163
300.175
300.188
300.202
300.217
300.232
300.247
300.264
300.28
300.298
300.316
300.335
300.355
300.375
300.396
300.418
300.44
300.463
300.487
300.512
300.537
300.563
300.59
300.618
300.646
300.675
300.705
300.736
300.767
300.799
300.832
300.866
300.9
300.936
300.971
301.008
301.045
301.083
301.122
301.161
301.201
301.241
301.282
301.324
301.365
301.408
301.45
301.493
301.536
301.579
301.622
301.665
301.708
301.75
301.792
301.834
301.875
301.916
301.956
301.995
300.002
300.006
300.011
300.016
300.021
300.026
300.032
300.038
300.044
300.05
300.057
300.064
300.072
300.08
300.089
300.098
300.107
300.117
300.127
300.138
300.15
300.162
300.174
300.187
300.201
300.215
300.23
300.246
300.262
300.279
300.296
300.314
300.333
300.353
300.373
300.393
300.415
300.437
300.46
300.484
300.508
300.533
300.559
300.585
300.612
300.64
300.669
300.698
300.728
300.759
300.791
300.823
300.856
300.889
300.924
300.958
300.994
301.03
301.067
301.104
301.142
301.18
301.219
301.258
301.298
301.338
301.378
301.418
301.458
301.499
301.54
301.58
301.62
301.66
301.7
301.74
301.779
301.817
301.855
301.892
301.929
300.002
300.006
300.011
300.016
300.021
300.026
300.032
300.037
300.044
300.05
300.057
300.064
300.072
300.08
300.088
300.097
300.107
300.116
300.127
300.138
300.149
300.161
300.173
300.186
300.2
300.214
300.229
300.244
300.26
300.277
300.294
300.312
300.331
300.35
300.37
300.39
300.412
300.433
300.456
300.479
300.503
300.528
300.553
300.579
300.606
300.633
300.661
300.69
300.72
300.75
300.781
300.812
300.844
300.877
300.91
300.944
300.978
301.013
301.048
301.084
301.12
301.157
301.194
301.232
301.269
301.307
301.345
301.383
301.422
301.46
301.498
301.536
301.574
301.611
301.648
301.685
301.722
301.757
301.793
301.827
301.861
300.002
300.006
300.011
300.016
300.021
300.026
300.031
300.037
300.043
300.05
300.057
300.064
300.071
300.079
300.088
300.097
300.106
300.116
300.126
300.137
300.148
300.16
300.172
300.185
300.199
300.213
300.227
300.242
300.258
300.275
300.292
300.309
300.328
300.347
300.366
300.387
300.408
300.429
300.451
300.474
300.498
300.522
300.547
300.572
300.599
300.625
300.653
300.681
300.71
300.739
300.769
300.799
300.83
300.862
300.894
300.927
300.96
300.994
301.028
301.062
301.097
301.132
301.167
301.203
301.238
301.274
301.31
301.346
301.382
301.418
301.454
301.489
301.525
301.56
301.595
301.629
301.663
301.696
301.729
301.762
301.793
300.002
300.006
300.011
300.016
300.02
300.026
300.031
300.037
300.043
300.049
300.056
300.063
300.071
300.079
300.087
300.096
300.105
300.115
300.125
300.136
300.147
300.159
300.171
300.184
300.197
300.211
300.225
300.24
300.256
300.272
300.289
300.306
300.324
300.343
300.363
300.382
300.403
300.424
300.446
300.469
300.492
300.515
300.54
300.565
300.59
300.616
300.643
300.67
300.698
300.727
300.756
300.785
300.815
300.846
300.877
300.908
300.94
300.972
301.005
301.038
301.071
301.104
301.138
301.171
301.205
301.239
301.273
301.307
301.34
301.374
301.408
301.441
301.474
301.507
301.539
301.571
301.603
301.634
301.665
301.695
301.724
300.002
300.006
300.011
300.015
300.02
300.025
300.031
300.037
300.043
300.049
300.056
300.063
300.07
300.078
300.086
300.095
300.104
300.114
300.124
300.134
300.145
300.157
300.169
300.182
300.195
300.209
300.223
300.238
300.253
300.269
300.286
300.303
300.321
300.339
300.358
300.378
300.398
300.419
300.44
300.462
300.484
300.508
300.531
300.556
300.581
300.606
300.632
300.658
300.685
300.713
300.741
300.769
300.798
300.828
300.857
300.887
300.918
300.949
300.98
301.011
301.042
301.074
301.106
301.137
301.169
301.201
301.233
301.265
301.297
301.328
301.36
301.391
301.421
301.452
301.482
301.512
301.541
301.571
301.599
301.627
301.655
300.002
300.006
300.011
300.015
300.02
300.025
300.031
300.036
300.042
300.049
300.055
300.062
300.07
300.077
300.086
300.094
300.103
300.113
300.123
300.133
300.144
300.155
300.167
300.18
300.193
300.206
300.22
300.235
300.25
300.266
300.282
300.299
300.316
300.334
300.353
300.372
300.392
300.412
300.433
300.454
300.476
300.499
300.522
300.545
300.57
300.594
300.619
300.645
300.671
300.698
300.724
300.752
300.78
300.808
300.836
300.865
300.894
300.923
300.952
300.982
301.012
301.042
301.072
301.102
301.132
301.161
301.191
301.221
301.251
301.28
301.31
301.339
301.367
301.396
301.424
301.452
301.479
301.506
301.533
301.559
301.585
300.002
300.006
300.011
300.015
300.02
300.025
300.03
300.036
300.042
300.048
300.055
300.062
300.069
300.076
300.085
300.093
300.102
300.111
300.121
300.131
300.142
300.153
300.165
300.177
300.19
300.203
300.217
300.231
300.246
300.262
300.278
300.294
300.311
300.329
300.347
300.366
300.385
300.405
300.425
300.446
300.467
300.489
300.511
300.534
300.557
300.581
300.605
300.63
300.655
300.68
300.706
300.732
300.759
300.786
300.813
300.84
300.867
300.895
300.923
300.951
300.979
301.007
301.035
301.063
301.092
301.12
301.148
301.175
301.203
301.231
301.258
301.285
301.312
301.338
301.364
301.39
301.415
301.441
301.465
301.49
301.514
300.002
300.006
300.01
300.015
300.02
300.025
300.03
300.035
300.041
300.047
300.054
300.061
300.068
300.075
300.083
300.092
300.101
300.11
300.119
300.129
300.14
300.151
300.163
300.175
300.187
300.2
300.214
300.228
300.242
300.257
300.273
300.289
300.305
300.323
300.34
300.358
300.377
300.396
300.416
300.436
300.457
300.478
300.499
300.521
300.544
300.567
300.59
300.613
300.637
300.662
300.686
300.711
300.736
300.762
300.787
300.813
300.839
300.865
300.892
300.918
300.944
300.971
300.997
301.023
301.05
301.076
301.102
301.128
301.154
301.179
301.205
301.23
301.255
301.279
301.303
301.327
301.351
301.374
301.397
301.42
301.442
300.002
300.006
300.01
300.015
300.019
300.024
300.03
300.035
300.041
300.047
300.053
300.06
300.067
300.074
300.082
300.09
300.099
300.108
300.117
300.127
300.138
300.148
300.16
300.171
300.184
300.196
300.21
300.223
300.237
300.252
300.267
300.283
300.299
300.316
300.333
300.35
300.368
300.387
300.406
300.425
300.445
300.465
300.486
300.507
300.529
300.551
300.573
300.595
300.618
300.641
300.665
300.688
300.712
300.736
300.76
300.785
300.809
300.834
300.858
300.883
300.908
300.932
300.957
300.982
301.006
301.031
301.055
301.079
301.103
301.127
301.15
301.173
301.196
301.219
301.242
301.264
301.286
301.307
301.329
301.35
301.37
300.002
300.006
300.01
300.014
300.019
300.024
300.029
300.034
300.04
300.046
300.052
300.059
300.066
300.073
300.081
300.089
300.097
300.106
300.115
300.125
300.135
300.146
300.156
300.168
300.18
300.192
300.205
300.218
300.232
300.246
300.261
300.276
300.292
300.308
300.324
300.341
300.359
300.376
300.395
300.413
300.432
300.452
300.472
300.492
300.512
300.533
300.554
300.575
300.597
300.619
300.641
300.663
300.686
300.709
300.731
300.754
300.777
300.8
300.823
300.846
300.869
300.892
300.915
300.938
300.961
300.984
301.006
301.028
301.051
301.073
301.094
301.116
301.137
301.158
301.179
301.2
301.22
301.24
301.26
301.279
301.298
300.002
300.006
300.01
300.014
300.019
300.023
300.028
300.034
300.039
300.045
300.051
300.058
300.064
300.071
300.079
300.087
300.095
300.104
300.113
300.122
300.132
300.142
300.153
300.164
300.176
300.187
300.2
300.213
300.226
300.24
300.254
300.269
300.284
300.299
300.315
300.331
300.348
300.365
300.382
300.4
300.418
300.437
300.456
300.475
300.494
300.514
300.534
300.554
300.575
300.595
300.616
300.637
300.658
300.679
300.701
300.722
300.743
300.765
300.786
300.808
300.829
300.851
300.872
300.893
300.914
300.935
300.956
300.977
300.997
301.018
301.038
301.058
301.077
301.097
301.116
301.135
301.154
301.172
301.19
301.208
301.226
300.002
300.006
300.01
300.014
300.018
300.023
300.028
300.033
300.038
300.044
300.05
300.056
300.063
300.07
300.077
300.085
300.093
300.101
300.11
300.119
300.129
300.138
300.149
300.16
300.171
300.182
300.194
300.207
300.219
300.233
300.246
300.26
300.275
300.29
300.305
300.32
300.336
300.352
300.369
300.386
300.403
300.421
300.439
300.457
300.475
300.494
300.512
300.531
300.551
300.57
300.589
300.609
300.629
300.649
300.668
300.688
300.708
300.728
300.748
300.768
300.788
300.808
300.827
300.847
300.866
300.886
300.905
300.924
300.943
300.962
300.98
300.999
301.017
301.035
301.052
301.07
301.087
301.104
301.121
301.137
301.153
300.002
300.006
300.009
300.014
300.018
300.022
300.027
300.032
300.037
300.043
300.049
300.055
300.061
300.068
300.075
300.082
300.09
300.098
300.107
300.116
300.125
300.134
300.144
300.155
300.165
300.176
300.188
300.2
300.212
300.225
300.238
300.251
300.265
300.279
300.293
300.308
300.323
300.339
300.355
300.371
300.387
300.403
300.42
300.437
300.454
300.472
300.489
300.507
300.525
300.543
300.561
300.58
300.598
300.616
300.635
300.653
300.672
300.69
300.709
300.727
300.745
300.764
300.782
300.8
300.818
300.836
300.853
300.871
300.888
300.905
300.922
300.939
300.956
300.972
300.988
301.004
301.02
301.036
301.051
301.066
301.081
300.002
300.005
300.009
300.013
300.017
300.022
300.026
300.031
300.036
300.042
300.047
300.053
300.059
300.066
300.073
300.08
300.087
300.095
300.103
300.112
300.121
300.13
300.139
300.149
300.16
300.17
300.181
300.192
300.204
300.216
300.229
300.241
300.254
300.268
300.281
300.295
300.31
300.324
300.339
300.354
300.369
300.385
300.401
300.416
300.433
300.449
300.465
300.482
300.498
300.515
300.532
300.549
300.566
300.583
300.6
300.617
300.634
300.651
300.668
300.685
300.702
300.719
300.735
300.752
300.768
300.785
300.801
300.817
300.833
300.848
300.864
300.879
300.895
300.91
300.924
300.939
300.953
300.968
300.982
300.995
301.009
300.002
300.005
300.009
300.013
300.017
300.021
300.025
300.03
300.035
300.04
300.046
300.051
300.057
300.064
300.07
300.077
300.084
300.092
300.099
300.108
300.116
300.125
300.134
300.143
300.153
300.163
300.174
300.184
300.196
300.207
300.219
300.231
300.243
300.256
300.268
300.282
300.295
300.309
300.322
300.336
300.351
300.365
300.38
300.395
300.41
300.425
300.44
300.455
300.471
300.486
300.502
300.517
300.533
300.549
300.564
300.58
300.596
300.611
300.627
300.642
300.658
300.673
300.688
300.703
300.718
300.733
300.748
300.763
300.777
300.791
300.806
300.82
300.833
300.847
300.861
300.874
300.887
300.9
300.913
300.925
300.938
300.002
300.005
300.009
300.012
300.016
300.02
300.025
300.029
300.034
300.039
300.044
300.049
300.055
300.061
300.067
300.074
300.081
300.088
300.095
300.103
300.111
300.119
300.128
300.137
300.146
300.156
300.166
300.176
300.186
300.197
300.208
300.219
300.231
300.243
300.255
300.267
300.279
300.292
300.305
300.318
300.331
300.345
300.358
300.372
300.386
300.4
300.414
300.428
300.442
300.456
300.471
300.485
300.499
300.514
300.528
300.542
300.556
300.571
300.585
300.599
300.613
300.627
300.641
300.655
300.668
300.682
300.695
300.709
300.722
300.735
300.748
300.76
300.773
300.785
300.798
300.81
300.822
300.833
300.845
300.856
300.868
300.002
300.005
300.008
300.012
300.016
300.019
300.024
300.028
300.032
300.037
300.042
300.047
300.053
300.058
300.064
300.071
300.077
300.084
300.091
300.098
300.106
300.114
300.122
300.13
300.139
300.148
300.157
300.167
300.177
300.187
300.197
300.207
300.218
300.229
300.24
300.252
300.263
300.275
300.287
300.299
300.311
300.324
300.336
300.349
300.361
300.374
300.387
300.4
300.413
300.426
300.439
300.452
300.465
300.478
300.491
300.504
300.517
300.53
300.543
300.556
300.568
300.581
300.594
300.606
300.618
300.631
300.643
300.655
300.667
300.679
300.69
300.702
300.713
300.724
300.735
300.746
300.757
300.768
300.778
300.788
300.799
300.002
300.005
300.008
300.011
300.015
300.019
300.022
300.027
300.031
300.035
300.04
300.045
300.05
300.056
300.061
300.067
300.073
300.08
300.086
300.093
300.1
300.108
300.115
300.123
300.131
300.14
300.148
300.157
300.166
300.176
300.185
300.195
300.205
300.215
300.225
300.236
300.246
300.257
300.268
300.279
300.291
300.302
300.313
300.325
300.336
300.348
300.36
300.372
300.383
300.395
300.407
300.419
300.431
300.443
300.454
300.466
300.478
300.49
300.501
300.513
300.524
300.536
300.547
300.558
300.569
300.58
300.591
300.602
300.613
300.623
300.634
300.644
300.654
300.665
300.674
300.684
300.694
300.704
300.713
300.722
300.731
300.001
300.004
300.007
300.011
300.014
300.018
300.021
300.025
300.029
300.033
300.038
300.043
300.047
300.053
300.058
300.063
300.069
300.075
300.081
300.088
300.094
300.101
300.108
300.116
300.123
300.131
300.139
300.147
300.156
300.164
300.173
300.182
300.191
300.201
300.21
300.22
300.229
300.239
300.249
300.26
300.27
300.28
300.29
300.301
300.311
300.322
300.333
300.343
300.354
300.365
300.375
300.386
300.397
300.407
300.418
300.429
300.439
300.45
300.46
300.47
300.481
300.491
300.501
300.511
300.521
300.531
300.541
300.551
300.56
300.57
300.579
300.588
300.597
300.607
300.615
300.624
300.633
300.641
300.65
300.658
300.666
300.001
300.004
300.007
300.01
300.013
300.017
300.02
300.024
300.028
300.032
300.036
300.04
300.045
300.049
300.054
300.06
300.065
300.07
300.076
300.082
300.088
300.095
300.101
300.108
300.115
300.122
300.13
300.137
300.145
300.153
300.161
300.169
300.178
300.186
300.195
300.204
300.212
300.221
300.231
300.24
300.249
300.258
300.268
300.277
300.287
300.296
300.306
300.315
300.325
300.335
300.344
300.354
300.363
300.373
300.382
300.392
300.401
300.411
300.42
300.429
300.439
300.448
300.457
300.466
300.475
300.484
300.492
300.501
300.51
300.518
300.526
300.535
300.543
300.551
300.559
300.567
300.574
300.582
300.59
300.597
300.604
300.001
300.004
300.007
300.009
300.012
300.016
300.019
300.022
300.026
300.03
300.033
300.038
300.042
300.046
300.051
300.056
300.061
300.066
300.071
300.077
300.082
300.088
300.094
300.101
300.107
300.114
300.12
300.127
300.134
300.142
300.149
300.157
300.164
300.172
300.18
300.188
300.196
300.204
300.212
300.22
300.229
300.237
300.246
300.254
300.263
300.271
300.28
300.288
300.297
300.306
300.314
300.323
300.331
300.34
300.348
300.357
300.365
300.374
300.382
300.39
300.398
300.407
300.415
300.423
300.431
300.438
300.446
300.454
300.461
300.469
300.476
300.484
300.491
300.498
300.505
300.512
300.519
300.526
300.533
300.539
300.546
300.001
300.004
300.006
300.009
300.012
300.015
300.018
300.021
300.024
300.028
300.031
300.035
300.039
300.043
300.047
300.052
300.057
300.061
300.066
300.071
300.077
300.082
300.088
300.093
300.099
300.105
300.111
300.118
300.124
300.131
300.137
300.144
300.151
300.158
300.165
300.172
300.18
300.187
300.194
300.202
300.209
300.217
300.225
300.232
300.24
300.247
300.255
300.263
300.271
300.278
300.286
300.294
300.301
300.309
300.316
300.324
300.331
300.339
300.346
300.354
300.361
300.368
300.375
300.382
300.389
300.396
300.403
300.41
300.417
300.423
300.43
300.436
300.443
300.449
300.455
300.462
300.468
300.474
300.48
300.486
300.491
300.001
300.003
300.006
300.008
300.011
300.014
300.017
300.019
300.023
300.026
300.029
300.033
300.036
300.04
300.044
300.048
300.053
300.057
300.061
300.066
300.071
300.076
300.081
300.086
300.092
300.097
300.103
300.109
300.114
300.12
300.127
300.133
300.139
300.145
300.152
300.158
300.165
300.171
300.178
300.185
300.191
300.198
300.205
300.212
300.219
300.226
300.232
300.239
300.246
300.253
300.26
300.267
300.274
300.28
300.287
300.294
300.3
300.307
300.314
300.32
300.327
300.333
300.339
300.346
300.352
300.358
300.364
300.37
300.376
300.382
300.388
300.394
300.399
300.405
300.411
300.416
300.421
300.427
300.432
300.437
300.442
300.001
300.003
300.005
300.008
300.01
300.013
300.015
300.018
300.021
300.024
300.027
300.031
300.034
300.038
300.041
300.045
300.049
300.053
300.057
300.062
300.066
300.071
300.075
300.08
300.085
300.09
300.095
300.1
300.106
300.111
300.117
300.122
300.128
300.134
300.14
300.145
300.151
300.157
300.163
300.169
300.176
300.182
300.188
300.194
300.2
300.206
300.212
300.219
300.225
300.231
300.237
300.243
300.249
300.255
300.261
300.267
300.273
300.279
300.285
300.291
300.297
300.302
300.308
300.314
300.319
300.325
300.33
300.336
300.341
300.346
300.351
300.356
300.362
300.367
300.371
300.376
300.381
300.386
300.391
300.395
300.4
300.001
300.003
300.005
300.007
300.01
300.012
300.015
300.017
300.02
300.023
300.026
300.029
300.032
300.035
300.039
300.042
300.046
300.05
300.054
300.058
300.062
300.066
300.07
300.075
300.079
300.084
300.089
300.094
300.098
300.103
300.109
300.114
300.119
300.124
300.13
300.135
300.14
300.146
300.151
300.157
300.162
300.168
300.173
300.179
300.185
300.19
300.196
300.201
300.207
300.213
300.218
300.224
300.229
300.235
300.24
300.246
300.251
300.256
300.262
300.267
300.272
300.277
300.282
300.287
300.292
300.297
300.302
300.307
300.312
300.317
300.321
300.326
300.331
300.335
300.339
300.344
300.348
300.352
300.357
300.361
300.365
300.001
300.003
300.005
300.007
300.009
300.011
300.014
300.016
300.019
300.022
300.024
300.027
300.03
300.034
300.037
300.04
300.044
300.047
300.051
300.055
300.059
300.063
300.067
300.071
300.075
300.079
300.084
300.088
300.093
300.098
300.102
300.107
300.112
300.117
300.122
300.127
300.132
300.137
300.142
300.147
300.153
300.158
300.163
300.168
300.173
300.178
300.184
300.189
300.194
300.199
300.204
300.209
300.214
300.22
300.225
300.23
300.235
300.239
300.244
300.249
300.254
300.259
300.263
300.268
300.273
300.277
300.282
300.286
300.291
300.295
300.299
300.304
300.308
300.312
300.316
300.32
300.324
300.328
300.332
300.336
300.34
300.001
300.003
300.005
300.007
300.009
300.011
300.013
300.016
300.018
300.021
300.024
300.027
300.03
300.033
300.036
300.039
300.042
300.046
300.049
300.053
300.057
300.061
300.065
300.069
300.073
300.077
300.081
300.086
300.09
300.095
300.099
300.104
300.108
300.113
300.118
300.123
300.128
300.132
300.137
300.142
300.147
300.152
300.157
300.162
300.167
300.172
300.177
300.182
300.187
300.192
300.197
300.202
300.206
300.211
300.216
300.221
300.226
300.23
300.235
300.24
300.244
300.249
300.253
300.258
300.262
300.266
300.271
300.275
300.279
300.283
300.287
300.292
300.296
300.299
300.303
300.307
300.311
300.315
300.318
300.322
300.326
302.963
303.091
303.168
303.239
303.302
303.353
303.387
303.427
303.466
303.502
303.533
303.566
303.601
303.634
303.667
303.699
303.729
303.756
303.784
303.813
303.841
303.869
303.898
303.925
303.953
303.98
304.007
304.033
304.06
304.085
304.11
304.135
304.16
304.184
304.209
304.232
304.256
304.279
304.301
304.324
304.347
304.368
304.391
304.415
304.439
304.461
304.482
304.503
304.526
304.548
304.569
304.588
304.609
304.63
304.651
304.673
304.694
304.715
304.736
304.755
304.772
304.79
304.808
304.827
304.846
304.865
304.883
304.902
304.92
304.937
304.955
304.972
304.988
305.005
305.021
305.037
305.052
305.068
305.082
305.098
305.116
305.132
305.146
305.16
305.173
305.185
305.199
305.215
305.228
305.24
305.251
305.264
305.277
305.289
305.301
305.314
305.326
305.336
305.347
305.358
305.367
305.377
305.385
305.395
305.404
305.414
305.423
305.43
305.437
305.444
305.451
305.458
305.466
305.473
305.479
305.484
305.489
305.494
305.499
305.503
305.506
305.51
305.513
305.515
305.517
305.518
305.519
305.52
305.519
305.518
305.516
305.514
305.51
305.505
305.5
305.493
305.485
305.476
305.466
305.455
305.442
305.428
305.412
305.394
305.375
305.353
305.329
305.303
305.273
305.239
305.198
305.156
305.114
305.066
305.013
304.952
304.886
304.773
304.669
304.537
304.363
302.863
302.975
303.063
303.137
303.202
303.256
303.302
303.345
303.386
303.425
303.46
303.496
303.531
303.565
303.599
303.632
303.663
303.692
303.722
303.751
303.78
303.809
303.838
303.866
303.894
303.922
303.949
303.976
304.002
304.028
304.054
304.08
304.105
304.13
304.154
304.178
304.202
304.226
304.249
304.272
304.295
304.317
304.34
304.364
304.387
304.41
304.431
304.454
304.476
304.498
304.519
304.539
304.56
304.581
304.603
304.624
304.645
304.666
304.687
304.706
304.724
304.743
304.761
304.78
304.799
304.818
304.837
304.855
304.873
304.891
304.909
304.926
304.942
304.959
304.975
304.991
305.007
305.023
305.038
305.054
305.071
305.087
305.101
305.116
305.129
305.142
305.156
305.17
305.184
305.196
305.208
305.221
305.234
305.246
305.258
305.271
305.282
305.293
305.304
305.315
305.324
305.334
305.343
305.353
305.362
305.372
305.381
305.388
305.396
305.402
305.41
305.417
305.424
305.431
305.437
305.442
305.448
305.453
305.458
305.462
305.465
305.468
305.472
305.474
305.476
305.477
305.478
305.478
305.478
305.477
305.475
305.473
305.469
305.464
305.459
305.452
305.444
305.436
305.425
305.414
305.401
305.387
305.371
305.353
305.334
305.312
305.288
305.261
305.231
305.197
305.156
305.114
305.071
305.022
304.968
304.905
304.834
304.725
304.615
304.477
304.286
302.781
302.879
302.965
303.039
303.105
303.163
303.213
303.26
303.304
303.345
303.384
303.421
303.458
303.493
303.528
303.561
303.593
303.625
303.655
303.686
303.716
303.745
303.774
303.803
303.832
303.86
303.888
303.915
303.942
303.969
303.995
304.021
304.046
304.071
304.096
304.121
304.145
304.169
304.193
304.216
304.239
304.263
304.286
304.309