/*--------------------------------*- C++ -*----------------------------------*\
| =========                 |                                                 |
| \\      /  F ield         | OpenFOAM: The Open Source CFD Toolbox           |
|  \\    /   O peration     | Version:  2106                                  |
|   \\  /    A nd           | Website:  www.openfoam.com                      |
|    \\/     M anipulation  |                                                 |
\*---------------------------------------------------------------------------*/
FoamFile
{
    version     2.0;
    format      ascii;
    arch        "LSB;label=32;scalar=64";
    class       volVectorField;
    location    "3";
    object      U;
}
// * * * * * * * * * * * * * * * * * * * * * * * * * * * * * * * * * * * * * //

dimensions      [0 1 -1 0 0 0 0];

internalField   nonuniform List<vector> 
12013
(
(0.100026 -7.15688e-06 0)
(0.100131 -1.32326e-05 0)
(0.100301 -1.88109e-05 0)
(0.10052 -2.38893e-05 0)
(0.100783 -2.86028e-05 0)
(0.101085 -3.30284e-05 0)
(0.101422 -3.72175e-05 0)
(0.101791 -4.12107e-05 0)
(0.102189 -4.50391e-05 0)
(0.102613 -4.87274e-05 0)
(0.10306 -5.22941e-05 0)
(0.103529 -5.57536e-05 0)
(0.104017 -5.91175e-05 0)
(0.104524 -6.23934e-05 0)
(0.105047 -6.55868e-05 0)
(0.105584 -6.87023e-05 0)
(0.106136 -7.17415e-05 0)
(0.1067 -7.47076e-05 0)
(0.107274 -7.76014e-05 0)
(0.107859 -8.04254e-05 0)
(0.108452 -8.31821e-05 0)
(0.109053 -8.58753e-05 0)
(0.109661 -8.85089e-05 0)
(0.110274 -9.1089e-05 0)
(0.110893 -9.36211e-05 0)
(0.111516 -9.61116e-05 0)
(0.112143 -9.85684e-05 0)
(0.112773 -0.000100997 0)
(0.113406 -0.000103404 0)
(0.114041 -0.000105794 0)
(0.114677 -0.000108171 0)
(0.115316 -0.000110538 0)
(0.115955 -0.000112894 0)
(0.116595 -0.000115237 0)
(0.117235 -0.000117563 0)
(0.117876 -0.000119867 0)
(0.118516 -0.000122139 0)
(0.119155 -0.000124368 0)
(0.119794 -0.000126541 0)
(0.12043 -0.000128642 0)
(0.121065 -0.000130653 0)
(0.121696 -0.000132554 0)
(0.122325 -0.000134321 0)
(0.122949 -0.000135929 0)
(0.123568 -0.000137349 0)
(0.124181 -0.00013855 0)
(0.124787 -0.000139497 0)
(0.125385 -0.000140151 0)
(0.125974 -0.000140468 0)
(0.126552 -0.000140399 0)
(0.127119 -0.00013989 0)
(0.127672 -0.000138878 0)
(0.128211 -0.000137292 0)
(0.128732 -0.000135049 0)
(0.129235 -0.000132055 0)
(0.129716 -0.000128198 0)
(0.130174 -0.000123349 0)
(0.130605 -0.000117352 0)
(0.131006 -0.000110022 0)
(0.131374 -0.000101136 0)
(0.131705 -9.04234e-05 0)
(0.131993 -7.755e-05 0)
(0.132234 -6.21019e-05 0)
(0.13242 -4.35598e-05 0)
(0.132544 -2.12641e-05 0)
(0.132596 5.6348e-06 0)
(0.132565 3.82713e-05 0)
(0.132436 7.81757e-05 0)
(0.132192 0.000127424 0)
(0.131809 0.000188906 0)
(0.131257 0.000266753 0)
(0.130497 0.000367015 0)
(0.129472 0.000498814 0)
(0.128105 0.000676322 0)
(0.126285 0.000922248 0)
(0.123846 0.00127415 0)
(0.120535 0.0017962 0)
(0.115935 0.00260428 0)
(0.109368 0.00394288 0)
(0.0999392 0.00651501 0)
(0.0891641 0.013554 0)
(0.100024 -2.1861e-05 0)
(0.100128 -4.0578e-05 0)
(0.100298 -5.77109e-05 0)
(0.100516 -7.3298e-05 0)
(0.100779 -8.77641e-05 0)
(0.10108 -0.000101346 0)
(0.101417 -0.000114201 0)
(0.101785 -0.000126453 0)
(0.102182 -0.000138199 0)
(0.102605 -0.000149514 0)
(0.103052 -0.000160456 0)
(0.10352 -0.000171068 0)
(0.104008 -0.000181386 0)
(0.104513 -0.000191433 0)
(0.105035 -0.000201227 0)
(0.105572 -0.00021078 0)
(0.106123 -0.000220101 0)
(0.106686 -0.000229194 0)
(0.107259 -0.000238066 0)
(0.107843 -0.000246724 0)
(0.108435 -0.000255174 0)
(0.109034 -0.000263428 0)
(0.109641 -0.000271499 0)
(0.110253 -0.000279405 0)
(0.110871 -0.000287162 0)
(0.111492 -0.000294793 0)
(0.112118 -0.000302317 0)
(0.112746 -0.000309756 0)
(0.113377 -0.000317127 0)
(0.11401 -0.000324445 0)
(0.114645 -0.000331723 0)
(0.115282 -0.000338967 0)
(0.115919 -0.000346178 0)
(0.116557 -0.000353349 0)
(0.117196 -0.000360468 0)
(0.117834 -0.000367516 0)
(0.118472 -0.000374466 0)
(0.119109 -0.000381284 0)
(0.119745 -0.000387929 0)
(0.120379 -0.000394354 0)
(0.121011 -0.000400501 0)
(0.121641 -0.000406309 0)
(0.122266 -0.000411707 0)
(0.122888 -0.000416617 0)
(0.123504 -0.00042095 0)
(0.124114 -0.000424612 0)
(0.124717 -0.000427494 0)
(0.125313 -0.000429477 0)
(0.125899 -0.000430429 0)
(0.126474 -0.0004302 0)
(0.127038 -0.000428622 0)
(0.127589 -0.000425505 0)
(0.128124 -0.00042063 0)
(0.128643 -0.000413747 0)
(0.129142 -0.000404568 0)
(0.129621 -0.000392753 0)
(0.130076 -0.000377905 0)
(0.130505 -0.000359554 0)
(0.130904 -0.000337138 0)
(0.131271 -0.00030998 0)
(0.1316 -0.000277258 0)
(0.131888 -0.000237963 0)
(0.132129 -0.000190844 0)
(0.132316 -0.000134335 0)
(0.132443 -6.64537e-05 0)
(0.132499 1.53458e-05 0)
(0.132476 0.000114427 0)
(0.132359 0.000235291 0)
(0.132131 0.000384022 0)
(0.131773 0.000569017 0)
(0.131258 0.000802132 0)
(0.130551 0.00110049 0)
(0.129608 0.00148942 0)
(0.128368 0.00200735 0)
(0.126751 0.00271391 0)
(0.124646 0.00370352 0)
(0.121909 0.00512716 0)
(0.11834 0.00722667 0)
(0.113702 0.0103886 0)
(0.108024 0.0151444 0)
(0.103226 0.0216241 0)
(0.100022 -3.71886e-05 0)
(0.100125 -6.96282e-05 0)
(0.100293 -9.91359e-05 0)
(0.10051 -0.000125973 0)
(0.100772 -0.000150872 0)
(0.101072 -0.000174246 0)
(0.101408 -0.000196362 0)
(0.101775 -0.00021744 0)
(0.10217 -0.000237644 0)
(0.102592 -0.000257104 0)
(0.103037 -0.000275919 0)
(0.103503 -0.000294166 0)
(0.103989 -0.000311903 0)
(0.104493 -0.000329173 0)
(0.105014 -0.000346007 0)
(0.105549 -0.000362424 0)
(0.106097 -0.000378438 0)
(0.106658 -0.00039406 0)
(0.107229 -0.000409299 0)
(0.107811 -0.000424166 0)
(0.1084 -0.000438675 0)
(0.108998 -0.000452844 0)
(0.109602 -0.000466696 0)
(0.110211 -0.00048026 0)
(0.110826 -0.000493567 0)
(0.111445 -0.000506654 0)
(0.112067 -0.000519553 0)
(0.112692 -0.000532303 0)
(0.11332 -0.000544933 0)
(0.11395 -0.000557472 0)
(0.114581 -0.000569937 0)
(0.115214 -0.00058234 0)
(0.115848 -0.000594682 0)
(0.116482 -0.000606954 0)
(0.117116 -0.000619134 0)
(0.11775 -0.000631188 0)
(0.118384 -0.00064307 0)
(0.119017 -0.000654723 0)
(0.119648 -0.000666077 0)
(0.120278 -0.000677047 0)
(0.120905 -0.000687539 0)
(0.121529 -0.000697445 0)
(0.122149 -0.000706644 0)
(0.122765 -0.000715001 0)
(0.123376 -0.000722367 0)
(0.123981 -0.000728577 0)
(0.124578 -0.000733446 0)
(0.125168 -0.000736772 0)
(0.125748 -0.000738327 0)
(0.126318 -0.000737856 0)
(0.126876 -0.000735072 0)
(0.12742 -0.000729652 0)
(0.127949 -0.000721224 0)
(0.128462 -0.000709363 0)
(0.128956 -0.000693579 0)
(0.129429 -0.000673299 0)
(0.129879 -0.000647851 0)
(0.130302 -0.000616444 0)
(0.130697 -0.000578133 0)
(0.13106 -0.000531783 0)
(0.131386 -0.000476021 0)
(0.131672 -0.000409167 0)
(0.131912 -0.000329149 0)
(0.132101 -0.000233385 0)
(0.132232 -0.000118624 0)
(0.132297 1.92751e-05 0)
(0.132286 0.000185709 0)
(0.132187 0.000387807 0)
(0.131988 0.000635086 0)
(0.131672 0.000940454 0)
(0.131218 0.00132172 0)
(0.130601 0.00180387 0)
(0.129791 0.00242258 0)
(0.128752 0.00322952 0)
(0.127444 0.00430025 0)
(0.125825 0.00574541 0)
(0.123863 0.00772412 0)
(0.121558 0.010454 0)
(0.119003 0.0142007 0)
(0.116566 0.0191419 0)
(0.115299 0.0246752 0)
(0.10002 -5.30217e-05 0)
(0.100122 -0.000100319 0)
(0.100288 -0.000143053 0)
(0.100503 -0.000181941 0)
(0.100762 -0.000218004 0)
(0.101061 -0.000251842 0)
(0.101394 -0.000283853 0)
(0.101759 -0.000314353 0)
(0.102153 -0.000343583 0)
(0.102572 -0.00037173 0)
(0.103015 -0.000398938 0)
(0.103479 -0.000425319 0)
(0.103962 -0.000450958 0)
(0.104464 -0.000475917 0)
(0.104981 -0.000500239 0)
(0.105514 -0.000523954 0)
(0.106059 -0.000547082 0)
(0.106616 -0.000569638 0)
(0.107185 -0.000591635 0)
(0.107762 -0.00061309 0)
(0.108349 -0.000634021 0)
(0.108942 -0.000654455 0)
(0.109542 -0.000674425 0)
(0.110148 -0.000693972 0)
(0.110758 -0.000713143 0)
(0.111373 -0.000731987 0)
(0.111991 -0.000750556 0)
(0.112611 -0.000768901 0)
(0.113234 -0.000787067 0)
(0.113859 -0.000805092 0)
(0.114485 -0.000823006 0)
(0.115112 -0.000840823 0)
(0.11574 -0.000858545 0)
(0.116368 -0.000876159 0)
(0.116996 -0.000893633 0)
(0.117624 -0.000910918 0)
(0.118251 -0.000927949 0)
(0.118877 -0.000944642 0)
(0.119502 -0.000960895 0)
(0.120124 -0.000976588 0)
(0.120744 -0.000991584 0)
(0.12136 -0.00100573 0)
(0.121973 -0.00101884 0)
(0.122581 -0.00103074 0)
(0.123184 -0.0010412 0)
(0.12378 -0.00104999 0)
(0.124369 -0.00105684 0)
(0.12495 -0.00106146 0)
(0.125522 -0.00106353 0)
(0.126083 -0.00106268 0)
(0.126632 -0.0010585 0)
(0.127167 -0.00105053 0)
(0.127688 -0.00103824 0)
(0.128192 -0.00102104 0)
(0.128677 -0.000998214 0)
(0.129142 -0.000968969 0)
(0.129584 -0.000932358 0)
(0.130001 -0.000887269 0)
(0.130389 -0.000832384 0)
(0.130746 -0.000766124 0)
(0.131068 -0.000686589 0)
(0.131352 -0.00059147 0)
(0.131592 -0.000477935 0)
(0.131784 -0.000342481 0)
(0.131922 -0.000180738 0)
(0.131998 1.28034e-05 0)
(0.132006 0.000245159 0)
(0.131936 0.000525471 0)
(0.131779 0.000865705 0)
(0.131522 0.00128168 0)
(0.131153 0.00179454 0)
(0.130658 0.00243282 0)
(0.130023 0.00323533 0)
(0.129236 0.00425493 0)
(0.128292 0.00556317 0)
(0.127203 0.00725474 0)
(0.126009 0.00944793 0)
(0.124806 0.0122716 0)
(0.123783 0.0158167 0)
(0.123266 0.0199898 0)
(0.1237 0.0241315 0)
(0.100018 -6.9377e-05 0)
(0.100118 -0.000132611 0)
(0.100281 -0.000189455 0)
(0.100494 -0.000241237 0)
(0.10075 -0.000289237 0)
(0.101046 -0.000334254 0)
(0.101377 -0.000376827 0)
(0.101739 -0.000417376 0)
(0.10213 -0.000456226 0)
(0.102546 -0.000493624 0)
(0.102986 -0.000529765 0)
(0.103446 -0.000564798 0)
(0.103927 -0.000598836 0)
(0.104424 -0.000631961 0)
(0.104938 -0.000664231 0)
(0.105467 -0.000695685 0)
(0.106008 -0.000726352 0)
(0.106561 -0.00075625 0)
(0.107125 -0.000785398 0)
(0.107698 -0.000813814 0)
(0.10828 -0.000841527 0)
(0.108868 -0.000868569 0)
(0.109463 -0.000894985 0)
(0.110063 -0.000920829 0)
(0.110668 -0.000946162 0)
(0.111277 -0.00097105 0)
(0.111888 -0.000995561 0)
(0.112503 -0.00101976 0)
(0.113119 -0.00104371 0)
(0.113737 -0.00106747 0)
(0.114356 -0.00109106 0)
(0.114976 -0.00111451 0)
(0.115596 -0.00113783 0)
(0.116216 -0.00116098 0)
(0.116836 -0.00118394 0)
(0.117456 -0.00120664 0)
(0.118074 -0.00122899 0)
(0.118691 -0.00125087 0)
(0.119307 -0.00127217 0)
(0.119919 -0.0012927 0)
(0.120529 -0.00131231 0)
(0.121136 -0.00133077 0)
(0.121738 -0.00134786 0)
(0.122336 -0.00136332 0)
(0.122928 -0.00137688 0)
(0.123513 -0.00138821 0)
(0.124091 -0.00139697 0)
(0.124661 -0.00140278 0)
(0.125221 -0.00140521 0)
(0.125771 -0.00140379 0)
(0.126308 -0.00139798 0)
(0.126833 -0.00138717 0)
(0.127342 -0.0013707 0)
(0.127835 -0.00134778 0)
(0.128309 -0.0013175 0)
(0.128764 -0.00127885 0)
(0.129196 -0.0012306 0)
(0.129604 -0.00117135 0)
(0.129984 -0.00109944 0)
(0.130335 -0.00101287 0)
(0.130653 -0.000909279 0)
(0.130934 -0.000785807 0)
(0.131175 -0.000638981 0)
(0.131372 -0.000464552 0)
(0.13152 -0.000257279 0)
(0.131614 -1.0664e-05 0)
(0.131648 0.000283366 0)
(0.131617 0.000635095 0)
(0.131513 0.00105766 0)
(0.131332 0.00156785 0)
(0.131068 0.00218726 0)
(0.130716 0.00294364 0)
(0.130278 0.00387254 0)
(0.129761 0.00501898 0)
(0.129184 0.00643843 0)
(0.128585 0.00819566 0)
(0.128033 0.0103578 0)
(0.127643 0.0129742 0)
(0.127578 0.016031 0)
(0.128046 0.019359 0)
(0.129213 0.022489 0)
(0.100017 -8.62688e-05 0)
(0.100114 -0.000166466 0)
(0.100274 -0.000238325 0)
(0.100483 -0.000303874 0)
(0.100737 -0.000364621 0)
(0.101029 -0.000421568 0)
(0.101356 -0.000475403 0)
(0.101715 -0.00052666 0)
(0.102102 -0.00057575 0)
(0.102514 -0.000622988 0)
(0.10295 -0.000668622 0)
(0.103407 -0.00071284 0)
(0.103882 -0.000755786 0)
(0.104376 -0.000797565 0)
(0.104885 -0.00083825 0)
(0.105408 -0.000877892 0)
(0.105944 -0.000916525 0)
(0.106492 -0.000954173 0)
(0.10705 -0.000990859 0)
(0.107618 -0.00102661 0)
(0.108193 -0.00106145 0)
(0.108775 -0.00109544 0)
(0.109364 -0.00112861 0)
(0.109957 -0.00116105 0)
(0.110555 -0.00119283 0)
(0.111156 -0.00122402 0)
(0.11176 -0.00125472 0)
(0.112366 -0.00128501 0)
(0.112974 -0.00131497 0)
(0.113584 -0.00134466 0)
(0.114194 -0.00137412 0)
(0.114805 -0.00140339 0)
(0.115416 -0.00143247 0)
(0.116026 -0.00146132 0)
(0.116636 -0.00148991 0)
(0.117245 -0.00151815 0)
(0.117853 -0.00154593 0)
(0.118459 -0.00157311 0)
(0.119063 -0.00159952 0)
(0.119664 -0.00162496 0)
(0.120262 -0.00164921 0)
(0.120856 -0.00167201 0)
(0.121446 -0.00169306 0)
(0.12203 -0.00171206 0)
(0.122609 -0.00172864 0)
(0.123181 -0.00174242 0)
(0.123746 -0.00175296 0)
(0.124302 -0.00175979 0)
(0.124848 -0.00176239 0)
(0.125384 -0.00176016 0)
(0.125908 -0.00175245 0)
(0.126418 -0.00173852 0)
(0.126914 -0.00171754 0)
(0.127394 -0.00168855 0)
(0.127855 -0.00165048 0)
(0.128298 -0.00160208 0)
(0.128719 -0.00154189 0)
(0.129116 -0.00146825 0)
(0.129488 -0.00137918 0)
(0.129832 -0.00127236 0)
(0.130146 -0.00114504 0)
(0.130426 -0.00099394 0)
(0.13067 -0.000815116 0)
(0.130874 -0.000603818 0)
(0.131036 -0.000354284 0)
(0.131153 -5.95081e-05 0)
(0.13122 0.000288982 0)
(0.131235 0.000701627 0)
(0.131196 0.00119137 0)
(0.131101 0.00177414 0)
(0.130953 0.00246944 0)
(0.130754 0.00330092 0)
(0.130517 0.00429684 0)
(0.130258 0.00548992 0)
(0.130008 0.00691605 0)
(0.129814 0.00861053 0)
(0.129744 0.0105998 0)
(0.129893 0.0128848 0)
(0.130373 0.0154127 0)
(0.131295 0.0180337 0)
(0.132706 0.0204587 0)
(0.100015 -0.000103709 0)
(0.10011 -0.000201852 0)
(0.100267 -0.000289646 0)
(0.100472 -0.000369851 0)
(0.100721 -0.000444185 0)
(0.10101 -0.000513844 0)
(0.101333 -0.000579671 0)
(0.101687 -0.000642321 0)
(0.102069 -0.000702296 0)
(0.102477 -0.000759984 0)
(0.102908 -0.000815688 0)
(0.103359 -0.00086964 0)
(0.10383 -0.000922017 0)
(0.104317 -0.000972947 0)
(0.104821 -0.00102252 0)
(0.105338 -0.0010708 0)
(0.105868 -0.00111782 0)
(0.106409 -0.00116363 0)
(0.106961 -0.00120824 0)
(0.107521 -0.00125168 0)
(0.108089 -0.001294 0)
(0.108664 -0.00133524 0)
(0.109244 -0.00137547 0)
(0.109829 -0.00141478 0)
(0.110418 -0.00145326 0)
(0.111011 -0.001491 0)
(0.111606 -0.00152811 0)
(0.112203 -0.00156469 0)
(0.112801 -0.00160083 0)
(0.1134 -0.00163662 0)
(0.114 -0.00167211 0)
(0.1146 -0.00170733 0)
(0.115199 -0.00174228 0)
(0.115798 -0.00177694 0)
(0.116396 -0.00181124 0)
(0.116993 -0.00184509 0)
(0.117588 -0.00187835 0)
(0.118181 -0.00191086 0)
(0.118771 -0.0019424 0)
(0.119358 -0.00197275 0)
(0.119942 -0.00200162 0)
(0.120522 -0.0020287 0)
(0.121096 -0.00205364 0)
(0.121666 -0.00207606 0)
(0.122229 -0.00209554 0)
(0.122786 -0.00211161 0)
(0.123335 -0.00212375 0)
(0.123875 -0.0021314 0)
(0.124405 -0.00213392 0)
(0.124925 -0.00213063 0)
(0.125432 -0.00212074 0)
(0.125927 -0.0021034 0)
(0.126408 -0.00207762 0)
(0.126872 -0.0020423 0)
(0.12732 -0.0019962 0)
(0.127749 -0.00193788 0)
(0.128158 -0.0018657 0)
(0.128544 -0.00177775 0)
(0.128907 -0.00167184 0)
(0.129245 -0.0015454 0)
(0.129554 -0.00139541 0)
(0.129835 -0.00121834 0)
(0.130083 -0.00101 0)
(0.130298 -0.000765441 0)
(0.130478 -0.000478761 0)
(0.130622 -0.000142978 0)
(0.130727 0.00025011 0)
(0.130795 0.000710184 0)
(0.130825 0.00124883 0)
(0.130822 0.00187966 0)
(0.130791 0.0026184 0)
(0.130742 0.00348289 0)
(0.130689 0.0044926 0)
(0.130657 0.00566762 0)
(0.130675 0.00702651 0)
(0.130787 0.00858238 0)
(0.131048 0.0103364 0)
(0.131523 0.0122675 0)
(0.132279 0.0143184 0)
(0.133369 0.0163803 0)
(0.134795 0.0182856 0)
(0.100013 -0.000121716 0)
(0.100107 -0.000238747 0)
(0.100259 -0.000343401 0)
(0.10046 -0.000439157 0)
(0.100705 -0.000527938 0)
(0.100988 -0.000611114 0)
(0.101306 -0.00068969 0)
(0.101655 -0.000764442 0)
(0.102032 -0.000835968 0)
(0.102434 -0.000904734 0)
(0.102859 -0.000971101 0)
(0.103305 -0.00103535 0)
(0.103769 -0.00109769 0)
(0.10425 -0.00115827 0)
(0.104747 -0.00121721 0)
(0.105257 -0.00127457 0)
(0.105779 -0.00133042 0)
(0.106313 -0.00138478 0)
(0.106856 -0.00143768 0)
(0.107408 -0.00148917 0)
(0.107968 -0.00153928 0)
(0.108533 -0.00158808 0)
(0.109105 -0.00163565 0)
(0.10968 -0.00168208 0)
(0.110259 -0.00172748 0)
(0.110841 -0.00177197 0)
(0.111426 -0.00181568 0)
(0.112012 -0.00185871 0)
(0.112598 -0.00190119 0)
(0.113186 -0.00194319 0)
(0.113773 -0.0019848 0)
(0.114361 -0.00202605 0)
(0.114947 -0.00206695 0)
(0.115533 -0.00210745 0)
(0.116117 -0.0021475 0)
(0.116699 -0.00218696 0)
(0.117279 -0.00222569 0)
(0.117857 -0.00226349 0)
(0.118432 -0.00230011 0)
(0.119003 -0.00233528 0)
(0.119571 -0.00236867 0)
(0.120134 -0.00239991 0)
(0.120692 -0.00242859 0)
(0.121244 -0.00245428 0)
(0.12179 -0.00247646 0)
(0.122329 -0.0024946 0)
(0.12286 -0.0025081 0)
(0.123382 -0.00251631 0)
(0.123894 -0.0025185 0)
(0.124396 -0.00251387 0)
(0.124886 -0.00250155 0)
(0.125364 -0.00248055 0)
(0.125827 -0.00244977 0)
(0.126275 -0.00240797 0)
(0.126708 -0.00235378 0)
(0.127122 -0.00228561 0)
(0.127518 -0.00220167 0)
(0.127893 -0.00209992 0)
(0.128247 -0.00197799 0)
(0.128579 -0.0018332 0)
(0.128886 -0.00166242 0)
(0.129167 -0.00146204 0)
(0.129423 -0.00122788 0)
(0.129651 -0.000955087 0)
(0.129851 -0.000638041 0)
(0.130025 -0.000270263 0)
(0.130171 0.000155635 0)
(0.130294 0.000647849 0)
(0.130395 0.00121579 0)
(0.130481 0.00186993 0)
(0.130561 0.00262156 0)
(0.130646 0.00348239 0)
(0.130753 0.00446371 0)
(0.130903 0.00557515 0)
(0.131124 0.00682268 0)
(0.131449 0.0082057 0)
(0.131918 0.00971298 0)
(0.13257 0.0113176 0)
(0.133441 0.0129716 0)
(0.134553 0.0146022 0)
(0.135894 0.016115 0)
(0.100011 -0.000140312 0)
(0.100103 -0.000277136 0)
(0.100251 -0.000399574 0)
(0.100448 -0.000511775 0)
(0.100687 -0.00061587 0)
(0.100965 -0.000713388 0)
(0.101278 -0.000805486 0)
(0.101621 -0.000893066 0)
(0.101991 -0.000976827 0)
(0.102387 -0.00105731 0)
(0.102805 -0.00113495 0)
(0.103244 -0.00121006 0)
(0.1037 -0.0012829 0)
(0.104174 -0.00135364 0)
(0.104662 -0.00142242 0)
(0.105164 -0.00148932 0)
(0.105679 -0.0015544 0)
(0.106203 -0.0016177 0)
(0.106737 -0.00167926 0)
(0.10728 -0.00173913 0)
(0.107829 -0.00179734 0)
(0.108385 -0.00185398 0)
(0.108945 -0.00190914 0)
(0.10951 -0.00196291 0)
(0.110077 -0.00201543 0)
(0.110648 -0.00206684 0)
(0.11122 -0.00211728 0)
(0.111793 -0.00216688 0)
(0.112367 -0.00221578 0)
(0.112941 -0.00226408 0)
(0.113515 -0.00231186 0)
(0.114088 -0.00235916 0)
(0.11466 -0.00240599 0)
(0.11523 -0.00245232 0)
(0.115799 -0.00249806 0)
(0.116365 -0.00254308 0)
(0.116929 -0.00258719 0)
(0.117489 -0.00263017 0)
(0.118047 -0.00267174 0)
(0.1186 -0.00271158 0)
(0.11915 -0.00274931 0)
(0.119694 -0.00278452 0)
(0.120234 -0.00281673 0)
(0.120767 -0.00284544 0)
(0.121293 -0.00287008 0)
(0.121813 -0.00289003 0)
(0.122324 -0.00290462 0)
(0.122826 -0.00291311 0)
(0.123319 -0.0029147 0)
(0.123801 -0.00290849 0)
(0.124272 -0.00289351 0)
(0.124731 -0.00286868 0)
(0.125176 -0.0028328 0)
(0.125607 -0.00278454 0)
(0.126023 -0.00272241 0)
(0.126423 -0.00264475 0)
(0.126805 -0.00254966 0)
(0.12717 -0.00243505 0)
(0.127515 -0.00229851 0)
(0.12784 -0.00213733 0)
(0.128146 -0.00194845 0)
(0.12843 -0.00172837 0)
(0.128693 -0.00147316 0)
(0.128936 -0.00117837 0)
(0.129159 -0.000838984 0)
(0.129363 -0.000449431 0)
(0.129551 -3.54101e-06 0)
(0.129727 0.000505089 0)
(0.129896 0.00108325 0)
(0.130063 0.00173808 0)
(0.13024 0.00247662 0)
(0.130438 0.00330518 0)
(0.130671 0.00422858 0)
(0.130959 0.00524911 0)
(0.131321 0.00636505 0)
(0.131783 0.00756894 0)
(0.132368 0.00884556 0)
(0.1331 0.01017 0)
(0.133995 0.0115063 0)
(0.135059 0.0128079 0)
(0.136279 0.0140218 0)
(0.100009 -0.000159518 0)
(0.100099 -0.000317004 0)
(0.100243 -0.000458142 0)
(0.100435 -0.000587677 0)
(0.100669 -0.000707954 0)
(0.100941 -0.000820643 0)
(0.101247 -0.000927047 0)
(0.101583 -0.00102819 0)
(0.101947 -0.00112488 0)
(0.102335 -0.00121774 0)
(0.102745 -0.00130726 0)
(0.103176 -0.00139381 0)
(0.103624 -0.00147768 0)
(0.104089 -0.00155909 0)
(0.104568 -0.00163818 0)
(0.105061 -0.00171505 0)
(0.105565 -0.00178977 0)
(0.10608 -0.00186239 0)
(0.106604 -0.00193296 0)
(0.107135 -0.00200151 0)
(0.107673 -0.00206811 0)
(0.108217 -0.00213284 0)
(0.108766 -0.0021958 0)
(0.109318 -0.0022571 0)
(0.109873 -0.00231691 0)
(0.11043 -0.00237536 0)
(0.110988 -0.00243263 0)
(0.111548 -0.00248887 0)
(0.112107 -0.00254423 0)
(0.112666 -0.00259883 0)
(0.113224 -0.00265276 0)
(0.113781 -0.00270607 0)
(0.114337 -0.00275878 0)
(0.114891 -0.00281084 0)
(0.115442 -0.00286215 0)
(0.11599 -0.00291258 0)
(0.116536 -0.00296191 0)
(0.117078 -0.00300989 0)
(0.117616 -0.0030562 0)
(0.11815 -0.00310048 0)
(0.11868 -0.0031423 0)
(0.119204 -0.00318121 0)
(0.119723 -0.00321667 0)
(0.120235 -0.00324811 0)
(0.120741 -0.0032749 0)
(0.121239 -0.00329636 0)
(0.121729 -0.00331175 0)
(0.12221 -0.00332024 0)
(0.122682 -0.00332097 0)
(0.123144 -0.00331296 0)
(0.123594 -0.00329518 0)
(0.124033 -0.00326645 0)
(0.124459 -0.00322553 0)
(0.124872 -0.00317102 0)
(0.125271 -0.00310138 0)
(0.125656 -0.00301489 0)
(0.126025 -0.00290968 0)
(0.126378 -0.00278365 0)
(0.126715 -0.00263445 0)
(0.127035 -0.00245951 0)
(0.127339 -0.00225594 0)
(0.127627 -0.00202059 0)
(0.127899 -0.00174994 0)
(0.128156 -0.00144017 0)
(0.128401 -0.00108716 0)
(0.128635 -0.000686455 0)
(0.128863 -0.000233391 0)
(0.129087 0.000276764 0)
(0.129315 0.000848148 0)
(0.129552 0.00148485 0)
(0.129808 0.0021903 0)
(0.130093 0.00296674 0)
(0.13042 0.00381456 0)
(0.130802 0.00473161 0)
(0.131255 0.00571236 0)
(0.131794 0.00674702 0)
(0.132432 0.00782084 0)
(0.133183 0.00891361 0)
(0.134052 0.00999995 0)
(0.135039 0.0110506 0)
(0.136131 0.0120356 0)
(0.100007 -0.000179351 0)
(0.100095 -0.000358332 0)
(0.100235 -0.000519075 0)
(0.100421 -0.000666819 0)
(0.100649 -0.00080414 0)
(0.100915 -0.000932828 0)
(0.101213 -0.00105432 0)
(0.101542 -0.00116978 0)
(0.101898 -0.00128009 0)
(0.102278 -0.00138598 0)
(0.10268 -0.00148798 0)
(0.103101 -0.00158655 0)
(0.10354 -0.00168199 0)
(0.103995 -0.00177455 0)
(0.104464 -0.00186441 0)
(0.104946 -0.00195168 0)
(0.10544 -0.00203644 0)
(0.105943 -0.00211873 0)
(0.106455 -0.00219862 0)
(0.106974 -0.00227615 0)
(0.1075 -0.00235139 0)
(0.108031 -0.00242443 0)
(0.108566 -0.00249537 0)
(0.109104 -0.00256436 0)
(0.109645 -0.00263156 0)
(0.110188 -0.00269714 0)
(0.110731 -0.00276128 0)
(0.111275 -0.00282417 0)
(0.111818 -0.00288597 0)
(0.112361 -0.00294682 0)
(0.112902 -0.00300681 0)
(0.113442 -0.00306603 0)
(0.113979 -0.00312447 0)
(0.114514 -0.00318208 0)
(0.115047 -0.00323878 0)
(0.115576 -0.0032944 0)
(0.116101 -0.0033487 0)
(0.116623 -0.00340141 0)
(0.117141 -0.00345217 0)
(0.117654 -0.00350058 0)
(0.118162 -0.00354618 0)
(0.118664 -0.00358845 0)
(0.119161 -0.00362682 0)
(0.119651 -0.00366065 0)
(0.120134 -0.00368925 0)
(0.12061 -0.0037119 0)
(0.121077 -0.00372777 0)
(0.121536 -0.003736 0)
(0.121986 -0.00373565 0)
(0.122425 -0.0037257 0)
(0.122855 -0.00370506 0)
(0.123273 -0.00367252 0)
(0.123679 -0.0036268 0)
(0.124074 -0.00356647 0)
(0.124456 -0.00349001 0)
(0.124825 -0.00339573 0)
(0.12518 -0.00328181 0)
(0.125522 -0.00314624 0)
(0.125851 -0.00298687 0)
(0.126167 -0.00280134 0)
(0.12647 -0.00258711 0)
(0.126761 -0.00234145 0)
(0.127041 -0.00206145 0)
(0.127313 -0.00174407 0)
(0.127577 -0.00138616 0)
(0.127838 -0.000984519 0)
(0.128099 -0.000535984 0)
(0.128365 -3.7506e-05 0)
(0.12864 0.00051322 0)
(0.128932 0.00111755 0)
(0.129248 0.00177625 0)
(0.129596 0.00248881 0)
(0.129985 0.00325304 0)
(0.130426 0.00406462 0)
(0.130928 0.00491677 0)
(0.131501 0.00579989 0)
(0.132151 0.00670149 0)
(0.132885 0.00760635 0)
(0.133703 0.00849707 0)
(0.134602 0.00935535 0)
(0.135573 0.010164 0)
(0.100004 -0.00019982 0)
(0.10009 -0.000401096 0)
(0.100227 -0.000582325 0)
(0.100407 -0.000749137 0)
(0.100629 -0.000904344 0)
(0.100887 -0.00104985 0)
(0.101178 -0.00118721 0)
(0.101499 -0.00131771 0)
(0.101846 -0.00144234 0)
(0.102216 -0.00156189 0)
(0.102608 -0.001677 0)
(0.10302 -0.00178813 0)
(0.103448 -0.00189567 0)
(0.103892 -0.00199987 0)
(0.10435 -0.00210094 0)
(0.104821 -0.00219901 0)
(0.105302 -0.00229417 0)
(0.105792 -0.00238647 0)
(0.106291 -0.00247597 0)
(0.106797 -0.00256274 0)
(0.107309 -0.00264683 0)
(0.107825 -0.00272835 0)
(0.108346 -0.00280742 0)
(0.108869 -0.00288419 0)
(0.109394 -0.00295885 0)
(0.10992 -0.00303158 0)
(0.110447 -0.00310259 0)
(0.110974 -0.00317208 0)
(0.111499 -0.00324023 0)
(0.112024 -0.00330721 0)
(0.112547 -0.00337312 0)
(0.113068 -0.00343804 0)
(0.113586 -0.00350199 0)
(0.114101 -0.00356492 0)
(0.114613 -0.00362673 0)
(0.115121 -0.00368723 0)
(0.115625 -0.00374618 0)
(0.116125 -0.00380326 0)
(0.116621 -0.00385811 0)
(0.117111 -0.00391028 0)
(0.117596 -0.00395927 0)
(0.118075 -0.00400451 0)
(0.118548 -0.00404539 0)
(0.119015 -0.00408122 0)
(0.119474 -0.00411127 0)
(0.119926 -0.00413476 0)
(0.12037 -0.00415082 0)
(0.120805 -0.00415855 0)
(0.121232 -0.00415696 0)
(0.121649 -0.00414502 0)
(0.122056 -0.00412159 0)
(0.122453 -0.00408547 0)
(0.122839 -0.00403538 0)
(0.123215 -0.00396993 0)
(0.123579 -0.00388763 0)
(0.123933 -0.00378691 0)
(0.124275 -0.00366605 0)
(0.124606 -0.00352325 0)
(0.124926 -0.0033566 0)
(0.125237 -0.00316406 0)
(0.125539 -0.00294351 0)
(0.125832 -0.00269277 0)
(0.126119 -0.00240959 0)
(0.126402 -0.00209176 0)
(0.126684 -0.00173712 0)
(0.126966 -0.00134363 0)
(0.127254 -0.000909522 0)
(0.12755 -0.000433282 0)
(0.127862 8.62163e-05 0)
(0.128192 0.000648608 0)
(0.128548 0.00125265 0)
(0.128936 0.00189623 0)
(0.129362 0.00257594 0)
(0.129832 0.00328683 0)
(0.130353 0.00402228 0)
(0.130929 0.00477403 0)
(0.131564 0.00553225 0)
(0.13226 0.00628592 0)
(0.133016 0.00702332 0)
(0.133828 0.00773295 0)
(0.134688 0.00840484 0)
(0.100002 -0.000220924 0)
(0.100086 -0.000445254 0)
(0.100218 -0.000647818 0)
(0.100393 -0.000834533 0)
(0.100607 -0.00100844 0)
(0.100858 -0.00117155 0)
(0.101141 -0.00132554 0)
(0.101452 -0.0014718 0)
(0.10179 -0.00161142 0)
(0.10215 -0.00174528 0)
(0.102532 -0.00187406 0)
(0.102932 -0.00199831 0)
(0.103349 -0.00211844 0)
(0.103781 -0.00223474 0)
(0.104226 -0.00234744 0)
(0.104683 -0.00245669 0)
(0.105151 -0.00256258 0)
(0.105628 -0.00266518 0)
(0.106112 -0.00276455 0)
(0.106603 -0.00286076 0)
(0.1071 -0.00295388 0)
(0.1076 -0.00304402 0)
(0.108104 -0.00313131 0)
(0.108611 -0.00321591 0)
(0.109119 -0.00329804 0)
(0.109627 -0.00337789 0)
(0.110136 -0.00345569 0)
(0.110644 -0.00353166 0)
(0.111151 -0.00360601 0)
(0.111656 -0.00367892 0)
(0.112159 -0.00375051 0)
(0.112659 -0.00382088 0)
(0.113156 -0.00389004 0)
(0.11365 -0.00395795 0)
(0.11414 -0.0040245 0)
(0.114625 -0.0040895 0)
(0.115107 -0.00415269 0)
(0.115584 -0.00421373 0)
(0.116055 -0.00427222 0)
(0.116522 -0.0043277 0)
(0.116982 -0.00437962 0)
(0.117437 -0.00442738 0)
(0.117886 -0.00447033 0)
(0.118327 -0.00450775 0)
(0.118762 -0.00453887 0)
(0.119189 -0.00456287 0)
(0.119608 -0.00457885 0)
(0.120019 -0.00458589 0)
(0.120421 -0.00458299 0)
(0.120815 -0.00456909 0)
(0.1212 -0.00454308 0)
(0.121575 -0.00450379 0)
(0.121941 -0.00444997 0)
(0.122297 -0.00438031 0)
(0.122644 -0.00429343 0)
(0.122982 -0.00418788 0)
(0.12331 -0.00406217 0)
(0.12363 -0.00391471 0)
(0.123942 -0.00374391 0)
(0.124246 -0.00354812 0)
(0.124545 -0.0033257 0)
(0.12484 -0.003075 0)
(0.125131 -0.00279449 0)
(0.125422 -0.00248271 0)
(0.125715 -0.00213839 0)
(0.126013 -0.00176054 0)
(0.126319 -0.00134847 0)
(0.126637 -0.000901914 0)
(0.12697 -0.000420988 0)
(0.127324 9.37375e-05 0)
(0.127703 0.000639932 0)
(0.128111 0.0012144 0)
(0.128551 0.00181336 0)
(0.129028 0.00243209 0)
(0.129546 0.00306484 0)
(0.130106 0.00370496 0)
(0.130709 0.00434507 0)
(0.131357 0.00497734 0)
(0.132046 0.00559396 0)
(0.132774 0.00618762 0)
(0.133534 0.00675249 0)
(0.099999 -0.000242645 0)
(0.100082 -0.000490747 0)
(0.10021 -0.000715451 0)
(0.100378 -0.000922864 0)
(0.100585 -0.00111626 0)
(0.100827 -0.00129774 0)
(0.101101 -0.00146908 0)
(0.101403 -0.00163178 0)
(0.10173 -0.00178704 0)
(0.102079 -0.0019358 0)
(0.102449 -0.00207882 0)
(0.102837 -0.0022167 0)
(0.103241 -0.00234988 0)
(0.10366 -0.00247871 0)
(0.104091 -0.00260342 0)
(0.104534 -0.00272418 0)
(0.104987 -0.00284109 0)
(0.105448 -0.00295425 0)
(0.105917 -0.0030637 0)
(0.106392 -0.00316952 0)
(0.106871 -0.00327178 0)
(0.107355 -0.00337061 0)
(0.107841 -0.00346615 0)
(0.108329 -0.00355858 0)
(0.108818 -0.00364811 0)
(0.109308 -0.00373498 0)
(0.109797 -0.00381942 0)
(0.110285 -0.00390169 0)
(0.110771 -0.00398201 0)
(0.111255 -0.00406057 0)
(0.111736 -0.00413754 0)
(0.112214 -0.00421299 0)
(0.112689 -0.00428698 0)
(0.11316 -0.00435946 0)
(0.113626 -0.0044303 0)
(0.114088 -0.00449933 0)
(0.114545 -0.00456627 0)
(0.114997 -0.00463077 0)
(0.115444 -0.0046924 0)
(0.115885 -0.00475066 0)
(0.11632 -0.00480501 0)
(0.116749 -0.0048548 0)
(0.117172 -0.00489936 0)
(0.117588 -0.00493794 0)
(0.117996 -0.00496974 0)
(0.118398 -0.00499393 0)
(0.118792 -0.0050096 0)
(0.119178 -0.00501583 0)
(0.119556 -0.00501161 0)
(0.119925 -0.00499592 0)
(0.120287 -0.00496768 0)
(0.12064 -0.00492577 0)
(0.120985 -0.00486904 0)
(0.121322 -0.00479629 0)
(0.121651 -0.00470627 0)
(0.121972 -0.00459775 0)
(0.122286 -0.00446943 0)
(0.122594 -0.00432003 0)
(0.122896 -0.00414829 0)
(0.123194 -0.00395297 0)
(0.123488 -0.00373289 0)
(0.123781 -0.00348697 0)
(0.124073 -0.00321427 0)
(0.124368 -0.00291402 0)
(0.124667 -0.00258569 0)
(0.124973 -0.00222908 0)
(0.125288 -0.0018443 0)
(0.125616 -0.00143192 0)
(0.12596 -0.000992908 0)
(0.126324 -0.000528618 0)
(0.126709 -4.07318e-05 0)
(0.12712 0.000467733 0)
(0.127558 0.000992477 0)
(0.128026 0.00152927 0)
(0.128525 0.00207342 0)
(0.129056 0.00261983 0)
(0.129619 0.00316308 0)
(0.130212 0.00369773 0)
(0.130835 0.00421852 0)
(0.131484 0.0047208 0)
(0.132156 0.00520113 0)
(0.0999961 -0.000264951 0)
(0.100077 -0.000537489 0)
(0.100201 -0.000785077 0)
(0.100362 -0.00101394 0)
(0.100562 -0.00122754 0)
(0.100795 -0.00142811 0)
(0.101059 -0.00161749 0)
(0.10135 -0.00179728 0)
(0.101666 -0.00196877 0)
(0.102003 -0.002133 0)
(0.10236 -0.00229077 0)
(0.102735 -0.00244274 0)
(0.103125 -0.00258941 0)
(0.103529 -0.00273113 0)
(0.103946 -0.00286818 0)
(0.104373 -0.00300073 0)
(0.104809 -0.00312892 0)
(0.105254 -0.00325281 0)
(0.105705 -0.00337249 0)
(0.106162 -0.00348802 0)
(0.106623 -0.00359949 0)
(0.107088 -0.00370702 0)
(0.107555 -0.00381078 0)
(0.108023 -0.00391094 0)
(0.108492 -0.00400775 0)
(0.108961 -0.00410145 0)
(0.109429 -0.00419231 0)
(0.109895 -0.0042806 0)
(0.110359 -0.00436657 0)
(0.11082 -0.00445043 0)
(0.111278 -0.00453237 0)