/*--------------------------------*- C++ -*----------------------------------*\
| =========                 |                                                 |
| \\      /  F ield         | OpenFOAM: The Open Source CFD Toolbox           |
|  \\    /   O peration     | Version:  2106                                  |
|   \\  /    A nd           | Website:  www.openfoam.com                      |
|    \\/     M anipulation  |                                                 |
\*---------------------------------------------------------------------------*/
FoamFile
{
    version     2.0;
    format      ascii;
    arch        "LSB;label=32;scalar=64";
    class       surfaceScalarField;
    location    "3.2";
    object      phi;
}
// * * * * * * * * * * * * * * * * * * * * * * * * * * * * * * * * * * * * * //

dimensions      [1 0 -1 0 0 0 0];

oriented        oriented;

internalField   nonuniform List<scalar> 
23692
(
9.31539e-05
-7.43628e-08
9.32885e-05
-1.34535e-07
9.34762e-05
-1.87607e-07
9.37101e-05
-2.33768e-07
9.3985e-05
-2.74618e-07
9.42964e-05
-3.11146e-07
9.46408e-05
-3.44026e-07
9.50149e-05
-3.73789e-07
9.54162e-05
-4.00852e-07
9.58422e-05
-4.25552e-07
9.62908e-05
-4.48153e-07
9.67602e-05
-4.68876e-07
9.72487e-05
-4.87898e-07
9.77547e-05
-5.05363e-07
9.82767e-05
-5.21392e-07
9.88134e-05
-5.36077e-07
9.93636e-05
-5.49503e-07
9.99261e-05
-5.61735e-07
0.0001005
-5.72831e-07
0.000101083
-5.82844e-07
0.000101676
-5.9182e-07
0.000102277
-5.9981e-07
0.000102884
-6.06858e-07
0.000103498
-6.13012e-07
0.000104117
-6.18324e-07
0.000104741
-6.2284e-07
0.000105369
-6.26612e-07
0.000105999
-6.29688e-07
0.000106632
-6.32113e-07
0.000107267
-6.3393e-07
0.000107903
-6.35181e-07
0.00010854
-6.35892e-07
0.000109177
-6.36094e-07
0.000109814
-6.35804e-07
0.00011045
-6.35029e-07
0.000111084
-6.33776e-07
0.000111717
-6.32038e-07
0.000112348
-6.29801e-07
0.000112976
-6.27044e-07
0.000113601
-6.23738e-07
0.000114222
-6.19848e-07
0.000114838
-6.15331e-07
0.000115449
-6.10139e-07
0.000116054
-6.04216e-07
0.000116652
-5.97499e-07
0.000117243
-5.89921e-07
0.000117825
-5.81405e-07
0.000118398
-5.71867e-07
0.00011896
-5.61213e-07
0.00011951
-5.4934e-07
0.000120047
-5.36133e-07
0.000120569
-5.21463e-07
0.000121075
-5.05179e-07
0.000121563
-4.87113e-07
0.000122031
-4.67071e-07
0.000122477
-4.44825e-07
0.000122897
-4.20109e-07
0.000123291
-3.92609e-07
0.000123653
-3.61946e-07
0.000123982
-3.2767e-07
0.000124272
-2.89229e-07
0.000124518
-2.45947e-07
0.000124716
-1.96987e-07
0.000124858
-1.41301e-07
0.000124936
-7.75571e-08
0.000124941
-4.08086e-09
0.00012486
8.14466e-08
0.000124678
1.81994e-07
0.000124377
3.01689e-07
0.000123932
4.46194e-07
0.000123309
6.23525e-07
0.000122464
8.453e-07
0.000121336
1.12879e-06
0.000119836
1.50038e-06
0.000117835
2.00144e-06
0.000115137
2.69861e-06
0.000111436
3.70123e-06
0.000106244
5.19314e-06
9.87385e-05
7.50567e-06
8.74375e-05
1.13015e-05
1.84298e-05
6.90083e-05
9.96768e-05
-1.52048e-07
9.98201e-05
-2.77742e-07
0.00010002
-3.87766e-07
0.00010027
-4.83291e-07
0.000100564
-5.67852e-07
0.000100896
-6.43459e-07
0.000101264
-7.11498e-07
0.000101664
-7.73082e-07
0.000102092
-8.29078e-07
0.000102547
-8.80172e-07
0.000103027
-9.26926e-07
0.000103528
-9.69787e-07
0.00010405
-1.00912e-06
0.000104591
-1.04524e-06
0.000105148
-1.07837e-06
0.000105722
-1.10873e-06
0.000106309
-1.13647e-06
0.00010691
-1.16175e-06
0.000107523
-1.18467e-06
0.000108146
-1.20534e-06
0.000108779
-1.22388e-06
0.00010942
-1.24036e-06
0.000110069
-1.2549e-06
0.000110725
-1.26758e-06
0.000111386
-1.27852e-06
0.000112052
-1.28781e-06
0.000112722
-1.29556e-06
0.000113395
-1.30186e-06
0.000114071
-1.30682e-06
0.000114748
-1.31052e-06
0.000115427
-1.31305e-06
0.000116107
-1.31446e-06
0.000116786
-1.31481e-06
0.000117466
-1.31414e-06
0.000118144
-1.31247e-06
0.000118821
-1.30981e-06
0.000119496
-1.30614e-06
0.000120169
-1.30144e-06
0.000120839
-1.29567e-06
0.000121505
-1.28876e-06
0.000122166
-1.28064e-06
0.000122823
-1.27123e-06
0.000123474
-1.26042e-06
0.000124119
-1.2481e-06
0.000124757
-1.23414e-06
0.000125386
-1.21841e-06
0.000126006
-1.20073e-06
0.000126616
-1.18095e-06
0.000127215
-1.15887e-06
0.000127801
-1.13428e-06
0.000128372
-1.10694e-06
0.000128928
-1.07658e-06
0.000129467
-1.04291e-06
0.000129986
-1.00557e-06
0.000130484
-9.6417e-07
0.000130958
-9.1825e-07
0.000131406
-8.67266e-07
0.000131825
-8.10581e-07
0.000132211
-7.47434e-07
0.000132561
-6.7691e-07
0.000132871
-5.97903e-07
0.000133134
-5.09055e-07
0.000133347
-4.08694e-07
0.000133501
-2.94731e-07
0.000133589
-1.64537e-07
0.0001336
-1.47591e-08
0.000133523
1.59004e-07
0.000133343
3.62564e-07
0.000133042
6.03749e-07
0.000132595
8.93208e-07
0.000131974
1.24572e-06
0.000131137
1.68223e-06
0.000130034
2.23294e-06
0.000128592
2.94232e-06
0.000126718
3.87676e-06
0.00012428
5.13642e-06
0.000121111
6.87132e-06
0.000117004
9.30075e-06
0.000111775
1.2735e-05
0.000105556
1.75211e-05
2.33652e-05
0.000100621
0.000106656
-2.32661e-07
0.000106808
-4.29508e-07
0.000107021
-6.00391e-07
0.000107286
-7.48844e-07
0.000107599
-8.80198e-07
0.000107953
-9.97605e-07
0.000108346
-1.10324e-06
0.000108772
-1.19883e-06
0.000109229
-1.28572e-06
0.000109714
-1.365e-06
0.000110225
-1.43752e-06
0.00011076
-1.50399e-06
0.000111317
-1.56499e-06
0.000111893
-1.62097e-06
0.000112488
-1.67232e-06
0.000113099
-1.71935e-06
0.000113726
-1.76232e-06
0.000114366
-1.80145e-06
0.000115019
-1.83692e-06
0.000115684
-1.8689e-06
0.000116358
-1.89754e-06
0.000117042
-1.92301e-06
0.000117734
-1.94544e-06
0.000118432
-1.965e-06
0.000119136
-1.98184e-06
0.000119846
-1.99612e-06
0.000120559
-2.00799e-06
0.000121276
-2.01763e-06
0.000121995
-2.02516e-06
0.000122717
-2.03074e-06
0.000123439
-2.03449e-06
0.000124162
-2.03651e-06
0.000124885
-2.03688e-06
0.000125608
-2.03566e-06
0.000126329
-2.03289e-06
0.000127049
-2.02858e-06
0.000127767
-2.0227e-06
0.000128482
-2.01522e-06
0.000129193
-2.00608e-06
0.000129901
-1.99517e-06
0.000130603
-1.98239e-06
0.000131301
-1.9676e-06
0.000131992
-1.95065e-06
0.000132676
-1.93136e-06
0.000133353
-1.90953e-06
0.00013402
-1.88495e-06
0.000134678
-1.85738e-06
0.000135324
-1.82656e-06
0.000135959
-1.79218e-06
0.000136579
-1.75393e-06
0.000137185
-1.71144e-06
0.000137773
-1.6643e-06
0.000138343
-1.61207e-06
0.000138893
-1.55421e-06
0.00013942
-1.49012e-06
0.000139921
-1.4191e-06
0.000140395
-1.34035e-06
0.000140838
-1.25289e-06
0.000141247
-1.15559e-06
0.000141618
-1.0471e-06
0.000141947
-9.25762e-07
0.000142228
-7.8958e-07
0.000142456
-6.36096e-07
0.000142625
-4.62267e-07
0.000142725
-2.64283e-07
0.000142748
-3.73334e-08
0.000142683
2.24749e-07
0.000142517
5.30031e-07
0.000142232
8.89171e-07
0.000141809
1.31636e-06
0.000141225
1.83075e-06
0.000140449
2.45851e-06
0.000139447
3.23585e-06
0.000138177
4.21312e-06
0.000136594
5.46041e-06
0.000134657
7.07405e-06
0.000132348
9.18109e-06
0.000129715
1.19337e-05
0.00012698
1.54711e-05
0.000124744
1.97577e-05
2.40542e-05
0.000124055
0.000114124
-3.16044e-07
0.000114284
-5.89513e-07
0.000114509
-8.25422e-07
0.000114791
-1.03059e-06
0.000115123
-1.21204e-06
0.0001155
-1.37415e-06
0.000115917
-1.51996e-06
0.00011637
-1.65186e-06
0.000116857
-1.77174e-06
0.000117374
-1.88107e-06
0.000117918
-1.98106e-06
0.000118487
-2.07267e-06
0.000119079
-2.15671e-06
0.000119693
-2.23381e-06
0.000120326
-2.3045e-06
0.000120977
-2.36923e-06
0.000121644
-2.42833e-06
0.000122325
-2.48212e-06
0.00012302
-2.53085e-06
0.000123727
-2.57476e-06
0.000124444
-2.61406e-06
0.000125171
-2.64895e-06
0.000125907
-2.67965e-06
0.000126649
-2.70638e-06
0.000127398
-2.72934e-06
0.000128151
-2.74876e-06
0.000128909
-2.76485e-06
0.000129671
-2.77785e-06
0.000130435
-2.78794e-06
0.0001312
-2.79532e-06
0.000131967
-2.80016e-06
0.000132734
-2.80261e-06
0.000133501
-2.80278e-06
0.000134268
-2.80076e-06
0.000135032
-2.79658e-06
0.000135795
-2.79027e-06
0.000136556
-2.78181e-06
0.000137313
-2.77113e-06
0.000138066
-2.75815e-06
0.000138814
-2.74274e-06
0.000139558
-2.72475e-06
0.000140295
-2.704e-06
0.000141026
-2.68027e-06
0.000141749
-2.65332e-06
0.000142464
-2.6229e-06
0.000143168
-2.58869e-06
0.000143862
-2.55038e-06
0.000144545
-2.50761e-06
0.000145213
-2.45998e-06
0.000145867
-2.40705e-06
0.000146505
-2.34834e-06
0.000147125
-2.2833e-06
0.000147726
-2.21131e-06
0.000148304
-2.13168e-06
0.000148858
-2.0436e-06
0.000149386
-1.94615e-06
0.000149885
-1.83825e-06
0.000150352
-1.71864e-06
0.000150783
-1.58584e-06
0.000151175
-1.43807e-06
0.000151523
-1.27322e-06
0.000151823
-1.08871e-06
0.000152069
-8.81426e-07
0.000152255
-6.47533e-07
0.000152374
-3.8229e-07
0.000152417
-7.97961e-08
0.000152375
2.67337e-07
0.000152237
6.68557e-07
0.000151991
1.13607e-06
0.000151623
1.68565e-06
0.000151116
2.33779e-06
0.000150456
3.11926e-06
0.000149628
4.06502e-06
0.000148621
5.22043e-06
0.000147439
6.64318e-06
0.00014611
8.40364e-06
0.000144712
1.05797e-05
0.000143408
1.32383e-05
0.000142495
1.63852e-05
0.000142406
1.98469e-05
2.30373e-05
0.000143424
0.000122114
-4.0215e-07
0.000122282
-7.57503e-07
0.00012252
-1.06275e-06
0.000122818
-1.3286e-06
0.00012317
-1.56364e-06
0.000123569
-1.77353e-06
0.000124012
-1.96225e-06
0.000124494
-2.13291e-06
0.00012501
-2.28796e-06
0.000125559
-2.42931e-06
0.000126137
-2.55852e-06
0.000126742
-2.67687e-06
0.000127372
-2.78537e-06
0.000128024
-2.88488e-06
0.000128696
-2.97607e-06
0.000129387
-3.05951e-06
0.000130095
-3.13566e-06
0.000130819
-3.20492e-06
0.000131557
-3.26761e-06
0.000132307
-3.32403e-06
0.000133069
-3.37448e-06
0.00013384
-3.41921e-06
0.00013462
-3.45851e-06
0.000135407
-3.49263e-06
0.000136201
-3.52188e-06
0.000137
-3.54653e-06
0.000137803
-3.56686e-06
0.00013861
-3.58317e-06
0.000139419
-3.5957e-06
0.000140229
-3.60472e-06
0.000141041
-3.61044e-06
0.000141852
-3.61305e-06
0.000142664
-3.6127e-06
0.000143474
-3.6095e-06
0.000144282
-3.60351e-06
0.000145087
-3.59476e-06
0.00014589
-3.58321e-06
0.000146689
-3.5688e-06
0.000147483
-3.5514e-06
0.000148273
-3.53087e-06
0.000149056
-3.50702e-06
0.000149833
-3.47959e-06
0.000150602
-3.44834e-06
0.000151363
-3.41295e-06
0.000152114
-3.37308e-06
0.000152855
-3.32836e-06
0.000153584
-3.27839e-06
0.0001543
-3.22269e-06
0.000155002
-3.16079e-06
0.000155688
-3.09212e-06
0.000156357
-3.01608e-06
0.000157007
-2.93199e-06
0.000157636
-2.83908e-06
0.000158242
-2.73648e-06
0.000158822
-2.62322e-06
0.000159375
-2.49816e-06
0.000159898
-2.35999e-06
0.000160387
-2.2072e-06
0.00016084
-2.03798e-06
0.000161253
-1.85024e-06
0.000161623
-1.64148e-06
0.000161943
-1.40869e-06
0.000162211
-1.14827e-06
0.00016242
-8.55849e-07
0.000162565
-5.26116e-07
0.000162639
-1.52576e-07
0.000162634
2.72674e-07
0.000162544
7.59422e-07
0.000162361
1.31996e-06
0.000162078
1.96958e-06
0.000161689
2.72723e-06
0.000161193
3.61631e-06
0.000160593
4.66529e-06
0.000159906
5.90799e-06
0.000159167
7.38271e-06
0.000158443
9.12897e-06
0.000157844
1.1179e-05
0.000157544
1.35391e-05
0.000157775
1.61547e-05
0.000158774
1.88483e-05
2.12408e-05
0.000160572
0.000130664
-4.91001e-07
0.00013084
-9.33285e-07
0.000131089
-1.31227e-06
0.000131404
-1.64288e-06
0.000131776
-1.93516e-06
0.000132199
-2.19607e-06
0.000132667
-2.43058e-06
0.000133178
-2.64257e-06
0.000133725
-2.83506e-06
0.000134307
-3.01048e-06
0.00013492
-3.17077e-06
0.000135561
-3.31749e-06
0.000136229
-3.45193e-06
0.00013692
-3.57516e-06
0.000137633
-3.68801e-06
0.000138365
-3.7912e-06
0.000139116
-3.8853e-06
0.000139883
-3.97079e-06
0.000140664
-4.04811e-06
0.000141459
-4.11762e-06
0.000142265
-4.17967e-06
0.000143082
-4.2346e-06
0.000143907
-4.28275e-06
0.00014474
-4.32446e-06
0.00014558
-4.36008e-06
0.000146425
-4.38997e-06
0.000147273
-4.41448e-06
0.000148126
-4.43395e-06
0.00014898
-4.44873e-06
0.000149836
-4.45912e-06
0.000150692
-4.46539e-06
0.000151548
-4.46778e-06
0.000152403
-4.46648e-06
0.000153256
-4.46162e-06
0.000154107
-4.45329e-06
0.000154956
-4.44152e-06
0.0001558
-4.42627e-06
0.00015664
-4.40747e-06
0.000157475
-4.38497e-06
0.000158304
-4.35859e-06
0.000159126
-4.32808e-06
0.000159941
-4.29317e-06
0.000160747
-4.25353e-06
0.000161544
-4.2088e-06
0.000162331
-4.15856e-06
0.000163106
-4.10236e-06
0.000163869
-4.0397e-06
0.000164617
-3.97005e-06
0.000165351
-3.8928e-06
0.000166067
-3.8073e-06
0.000166765
-3.71283e-06
0.000167443
-3.60858e-06
0.000168098
-3.49366e-06
0.00016873
-3.36705e-06
0.000169335
-3.2276e-06
0.000169912
-3.07403e-06
0.000170458
-2.90483e-06
0.00017097
-2.71826e-06
0.000171445
-2.51234e-06
0.000171881
-2.28471e-06
0.000172273
-2.03263e-06
0.000172618
-1.75284e-06
0.000172912
-1.4415e-06
0.000173151
-1.09403e-06
0.000173331
-7.04968e-07
0.000173447
-2.67801e-07
0.000173496
2.25148e-07
0.000173473
7.82981e-07
0.000173377
1.4167e-06
0.000173208
2.13941e-06
0.00017297
2.9664e-06
0.000172671
3.91525e-06
0.000172332
5.00549e-06
0.000171983
6.25763e-06
0.000171675
7.69107e-06
0.000171485
9.31993e-06
0.000171519
1.11456e-05
0.000171915
1.31442e-05
0.000172823
1.52473e-05
0.000174354
1.73177e-05
1.91313e-05
0.000176465
0.000139812
-5.8267e-07
0.000139996
-1.11671e-06
0.000140258
-1.57387e-06
0.000140588
-1.97337e-06
0.00014098
-2.32667e-06
0.000141427
-2.64197e-06
0.000141922
-2.92527e-06
0.000142461
-3.18126e-06
0.00014304
-3.4136e-06
0.000143656
-3.62521e-06
0.000144304
-3.81846e-06
0.000144983
-3.99525e-06
0.000145689
-4.15714e-06
0.00014642
-4.30541e-06
0.000147174
-4.4411e-06
0.000147949
-4.56506e-06
0.000148742
-4.67799e-06
0.000149553
-4.78049e-06
0.000150379
-4.87306e-06
0.000151219
-4.95617e-06
0.000152071
-5.03024e-06
0.000152933
-5.09567e-06
0.000153805
-5.15287e-06
0.000154684
-5.20227e-06
0.000155569
-5.24427e-06
0.00015646
-5.27933e-06
0.000157355
-5.30785e-06
0.000158252
-5.33027e-06
0.000159152
-5.34698e-06
0.000160053
-5.35836e-06
0.000160953
-5.36474e-06
0.000161853
-5.36641e-06
0.000162752
-5.36361e-06
0.000163648
-5.35649e-06
0.000164541
-5.34517e-06
0.000165431
-5.32968e-06
0.000166316
-5.31e-06
0.000167196
-5.28602e-06
0.00016807
-5.25759e-06
0.000168937
-5.22448e-06
0.000169797
-5.18643e-06
0.000170648
-5.14311e-06
0.00017149
-5.09412e-06
0.000172322
-5.03905e-06
0.000173142
-4.97741e-06
0.00017395
-4.90868e-06
0.000174744
-4.83228e-06
0.000175522
-4.74759e-06
0.000176285
-4.65392e-06
0.000177029
-4.55052e-06
0.000177754
-4.43657e-06
0.000178458
-4.31115e-06
0.000179139
-4.17327e-06
0.000179795
-4.02179e-06
0.000180424
-3.85545e-06
0.000181023
-3.67282e-06
0.000181592
-3.47227e-06
0.000182127
-3.25197e-06
0.000182625
-3.00978e-06
0.000183085
-2.74326e-06
0.000183503
-2.44957e-06
0.000183876
-2.12543e-06
0.000184203
-1.76703e-06
0.00018448
-1.36993e-06
0.000184705
-9.28967e-07
0.000184876
-4.38179e-07
0.000184993
1.09251e-07
0.000185056
7.20925e-07
0.000185068
1.4055e-06
0.000185035
2.1728e-06
0.000184969
3.03347e-06
0.000184887
3.99851e-06
0.000184815
5.07854e-06
0.000184791
6.28241e-06
0.000184867
7.61507e-06
0.000185114
9.07415e-06
0.000185615
1.06451e-05
0.000186466
1.22947e-05
0.000187751
1.39626e-05
0.000189514
1.55553e-05
1.69469e-05
0.000191699
0.000149602
-6.77271e-07
0.000149793
-1.30768e-06
0.000150066
-1.84747e-06
0.000150413
-2.31999e-06
0.000150825
-2.73814e-06
0.000151295
-3.1113e-06
0.000151817
-3.4465e-06
0.000152385
-3.74925e-06
0.000152996
-4.02391e-06
0.000153646
-4.27392e-06
0.00015433
-4.50208e-06
0.000155046
-4.71066e-06
0.000155792
-4.90153e-06
0.000156563
-5.07619e-06
0.000157359
-5.23589e-06
0.000158177
-5.38163e-06
0.000159014
-5.51427e-06
0.000159869
-5.63449e-06
0.00016074
-5.74292e-06
0.000161626
-5.84009e-06
0.000162523
-5.92651e-06
0.000163432
-6.00267e-06
0.000164349
-6.06905e-06
0.000165274
-6.12615e-06
0.000166206
-6.17447e-06
0.000167143
-6.21451e-06
0.000168083
-6.24679e-06
0.000169026
-6.27181e-06
0.000169971
-6.29003e-06
0.000170916
-6.30191e-06
0.00017186
-6.30785e-06
0.000172804
-6.30818e-06
0.000173745
-6.30319e-06
0.000174683
-6.29308e-06
0.000175617
-6.27799e-06
0.000176547
-6.25795e-06
0.000177471
-6.23295e-06
0.00017839
-6.20288e-06
0.000179301
-6.16757e-06
0.000180205
-6.12676e-06
0.0001811
-6.08015e-06
0.000181986
-6.02737e-06
0.000182861
-5.96797e-06
0.000183725
-5.90148e-06
0.000184576
-5.82734e-06
0.000185414
-5.74498e-06
0.000186237
-5.65375e-06
0.000187043
-5.55294e-06
0.000187833
-5.44179e-06
0.000188603
-5.31948e-06
0.000189353
-5.1851e-06
0.000190081
-5.03767e-06
0.000190785
-4.87609e-06
0.000191463
-4.69917e-06
0.000192115
-4.50557e-06
0.000192737
-4.2938e-06
0.000193328
-4.06219e-06
0.000193886
-3.80886e-06
0.000194409
-3.53168e-06
0.000194895
-3.22825e-06
0.000195343
-2.89584e-06
0.00019575
-2.53136e-06
0.000196115
-2.13131e-06
0.000196438
-1.69172e-06
0.000196718
-1.20814e-06
0.000196956
-6.7561e-07
0.000197155
-8.86738e-08
0.000197319
5.58375e-07
0.000197454
1.27124e-06
0.000197572
2.05615e-06
0.000197687
2.91903e-06
0.000197821
3.86494e-06
0.000198004
4.89721e-06
0.000198271
6.01629e-06
0.000198669
7.21804e-06
0.000199252
8.49174e-06
0.00020008
9.8175e-06
0.000201212
1.11636e-05
0.000202691
1.24845e-05
0.000204527
1.37202e-05
1.48018e-05
0.000206673
0.000160076
-7.74913e-07
0.000160275
-1.50611e-06
0.00016056
-2.13294e-06
0.000160923
-2.68261e-06
0.000161355
-3.16949e-06
0.000161848
-3.60402e-06
0.000162397
-3.99428e-06
0.000162995
-4.34664e-06
0.000163638
-4.66613e-06
0.000164321
-4.95679e-06
0.000165042
-5.22186e-06
0.000165796
-5.464e-06
0.000166581
-5.68539e-06
0.000167394
-5.88779e-06
0.000168231
-6.07265e-06
0.000169092
-6.24117e-06
0.000169973
-6.39433e-06
0.000170873
-6.53296e-06
0.000171789
-6.65778e-06
0.00017272
-6.76942e-06
0.000173663
-6.86848e-06
0.000174618
-6.95552e-06
0.000175581
-7.03112e-06
0.000176552
-7.09585e-06
0.00017753
-7.1503e-06
0.000178512
-7.19506e-06
0.000179497
-7.23072e-06
0.000180485
-7.25787e-06
0.000181473
-7.27707e-06
0.000182462
-7.28884e-06
0.000183449
-7.29364e-06
0.000184435
-7.29188e-06
0.000185417
-7.28388e-06
0.000186395
-7.26991e-06
0.000187369
-7.25011e-06
0.000188337
-7.22456e-06
0.000189299
-7.19324e-06
0.000190254
-7.15604e-06
0.000191201
-7.11277e-06
0.000192139
-7.06316e-06
0.000193067
-7.00687e-06
0.000193985
-6.94348e-06
0.000194891
-6.87253e-06
0.000195784
-6.79346e-06
0.000196664
-6.7057e-06
0.000197529
-6.60858e-06
0.000198379
-6.50142e-06
0.000199211
-6.38344e-06
0.000200024
-6.25383e-06
0.000200818
-6.11171e-06
0.00020159
-5.95612e-06
0.00020234
-5.78603e-06
0.000203065
-5.60031e-06
0.000203765
-5.39773e-06
0.000204438
-5.17696e-06
0.000205082
-4.93649e-06
0.000205696
-4.67472e-06
0.000206278
-4.38982e-06
0.000206827
-4.0798e-06
0.000207343
-3.74245e-06
0.000207823
-3.37533e-06
0.000208269
-2.97573e-06
0.000208679
-2.54071e-06
0.000209056
-2.06706e-06
0.0002094
-1.55131e-06
0.000209715
-9.89816e-07
0.000210007
-3.78798e-07
0.000210281
2.8546e-07
0.000210547
1.00593e-06
0.000210819
1.78529e-06
0.000211113
2.62545e-06
0.000211452
3.52689e-06
0.000211863
4.48795e-06
0.000212376
5.50398e-06
0.000213028
6.56646e-06
0.000213859
7.66192e-06
0.000214907
8.77105e-06
0.000216203
9.8681e-06
0.000217767
1.0921e-05
0.000219595
1.1893e-05
1.27467e-05
0.000221651
0.000171284
-8.75703e-07
0.00017149
-1.7119e-06
0.000171788
-2.43017e-06
0.000172166
-3.06105e-06
0.000172618
-3.6205e-06
0.000173134
-4.11994e-06
0.000173709
-4.56846e-06
0.000174336
-4.97329e-06
0.000175011
-5.34019e-06
0.000175729
-5.67376e-06
0.000176486
-5.97776e-06
0.000177278
-6.25523e-06
0.000178102
-6.50867e-06
0.000178956
-6.74014e-06
0.000179836
-6.95131e-06
0.000180739
-7.14356e-06
0.000181664
-7.31803e-06
0.000182608
-7.4757e-06
0.000183569
-7.61738e-06
0.000184545
-7.74382e-06
0.000185534
-7.85571e-06
0.000186534
-7.9537e-06
0.000187543
-8.03846e-06
0.000188559
-8.11065e-06
0.000189581
-8.17094e-06
0.000190608
-8.22003e-06
0.000191637
-8.25859e-06
0.000192668
-8.28729e-06
0.0001937
-8.30679e-06
0.00019473
-8.31769e-06
0.000195759
-8.32053e-06
0.000196785
-8.31578e-06
0.000197806
-8.30384e-06
0.000198823
-8.28499e-06
0.000199834
-8.25943e-06
0.000200839
-8.22727e-06
0.000201836
-8.18848e-06
0.000202824
-8.14298e-06
0.000203804
-8.09056e-06
0.000204773
-8.03094e-06
0.000205732
-7.96375e-06
0.000206679
-7.88854e-06
0.000207613
-7.80481e-06
0.000208533
-7.71198e-06
0.000209438
-7.60942e-06
0.000210328
-7.49644e-06
0.0002112
-7.37228e-06
0.000212054
-7.23616e-06
0.000212889
-7.08723e-06
0.000213704
-6.92456e-06
0.000214496
-6.74719e-06
0.000215266
-6.55408e-06
0.000216011
-6.3441e-06
0.000216731
-6.11607e-06
0.000217424
-5.86869e-06
0.000218089
-5.60056e-06
0.000218726
-5.31019e-06
0.000219334
-4.99593e-06
0.000219911
-4.65605e-06
0.000220459
-4.28867e-06
0.000220976
-3.89176e-06
0.000221465
-3.46321e-06
0.000221926
-3.00078e-06
0.000222363
-2.50218e-06
0.000222778
-1.96511e-06
0.000223176
-1.38733e-06
0.000223566
-7.66786e-07
0.000223954
-1.01605e-07
0.000224352
6.09123e-07
0.000224773
1.36495e-06
0.000225235
2.16486e-06
0.000225756
3.00631e-06
0.000226361
3.88477e-06
0.000227072
4.79329e-06
0.000227918
5.72211e-06
0.000228922
6.65828e-06
0.000230109
7.58563e-06
0.000231493
8.48496e-06
0.00023308
9.3348e-06
0.000234861
1.0113e-05
1.07995e-05
0.000236809
0.000183277
-9.79713e-07
0.00018349
-1.92495e-06
0.000183799
-2.73893e-06
0.000184194
-3.45505e-06
0.000184665
-4.09084e-06
0.000185204
-4.6587e-06
0.000185805
-5.16867e-06
0.000186461
-5.62885e-06
0.000187167
-6.04572e-06
0.000187919
-6.42449e-06
0.000188712
-6.76941e-06
0.000189541
-7.08395e-06
0.000190405
-7.37097e-06
0.000191299
-7.6328e-06
0.00019222
-7.87137e-06
0.000193166
-8.08826e-06
0.000194134
-8.28478e-06
0.000195122
-8.46203e-06
0.000196127
-8.62098e-06
0.000197147
-8.76246e-06
0.00019818
-8.88728e-06
0.000199224
-8.99619e-06
0.000200278
-9.08995e-06
0.000201338
-9.16931e-06
0.000202404
-9.23504e-06
0.000203474
-9.28794e-06
0.000204546
-9.32877e-06
0.000205618
-9.35832e-06
0.000206691
-9.37732e-06
0.000207761
-9.38647e-06
0.000208829
-9.38638e-06
0.000209893
-9.37762e-06
0.000210951
-9.36062e-06
0.000212004
-9.33575e-06
0.00021305
-9.30325e-06
0.000214087
-9.26323e-06
0.000215117
-9.21572e-06
0.000216136
-9.16063e-06
0.000217145
-9.09777e-06
0.000218143
-9.02682e-06
0.000219128
-8.94743e-06
0.000220101
-8.85913e-06
0.000221059
-8.76137e-06
0.000222002
-8.65357e-06
0.00022293
-8.53506e-06
0.00022384
-8.40513e-06
0.000224733
-8.26301e-06
0.000225606
-8.1079e-06
0.000226459
-7.93893e-06
0.000227292
-7.75519e-06
0.000228102
-7.55574e-06
0.000228889
-7.33957e-06
0.000229652
-7.10563e-06
0.00023039
-6.85279e-06
0.000231103
-6.57989e-06
0.00023179
-6.2857e-06
0.00023245
-5.96893e-06
0.000233084
-5.62821e-06
0.000233691
-5.26216e-06
0.000234273
-4.86932e-06
0.000234831
-4.44822e-06
0.000235367
-3.9974e-06
0.000235883
-3.51544e-06
0.000236383
-3.00103e-06
0.000236872
-2.453e-06
0.000237356
-1.87048e-06
0.000237844
-1.25294e-06
0.000238344
-6.00296e-07
0.000238867
8.70633e-08
0.000239426
8.07071e-07
0.000240036
1.55631e-06
0.000240713
2.33063e-06
0.000241474
3.12433e-06
0.000242339
3.93003e-06
0.000243323
4.73853e-06
0.000244444
5.53891e-06
0.000245712
6.31867e-06
0.000247133
7.06426e-06
0.000248708
7.76177e-06
0.000250424
8.39805e-06
8.96241e-06
0.000252262
0.00019611
-1.08696e-06
0.00019633
-2.1451e-06
0.000196651
-3.05896e-06
0.00019706
-3.86421e-06
0.00019755
-4.58004e-06
0.000198111
-5.21976e-06
0.000198738
-5.79431e-06
0.000199422
-6.31266e-06
0.000200159
-6.78203e-06
0.000200944
-7.20823e-06
0.000201772
-7.59605e-06
0.000202638
-7.94938e-06
0.00020354
-8.27144e-06
0.000204473
-8.56488e-06
0.000205435
-8.83188e-06
0.000206423
-9.07423e-06
0.000207433
-9.29343e-06
0.000208463
-9.49074e-06
0.000209511
-9.66725e-06
0.000210574
-9.82393e-06
0.00021165
-9.96168e-06
0.000212737
-1.00814e-05
0.000213833
-1.01838e-05
0.000214935
-1.02699e-05
0.000216043
-1.03406e-05
0.000217153
-1.03967e-05
0.000218265
-1.0439e-05
0.000219378
-1.04686e-05
0.000220488
-1.04861e-05
0.000221596
-1.04925e-05
0.0002227
-1.04884e-05
0.000223799
-1.04744e-05
0.000224892
-1.04512e-05
0.000225977
-1.0419e-05
0.000227054
-1.03782e-05
0.000228122
-1.0329e-05
0.000229179
-1.02714e-05
0.000230226
-1.02053e-05
0.000231261
-1.01306e-05
0.000232283
-1.0047e-05
0.000233291
-9.95402e-06
0.000234285
-9.8513e-06
0.000235264
-9.73826e-06
0.000236227
-9.61429e-06
0.000237172
-9.47874e-06
0.0002381
-9.33087e-06
0.000239009
-9.16993e-06
0.000239898
-8.99513e-06
0.000240766
-8.80563e-06
0.000241613
-8.60056e-06
0.000242438
-8.37904e-06
0.000243241
-8.14013e-06
0.00024402
-7.88289e-06
0.000244775
-7.60636e-06
0.000245506
-7.30953e-06
0.000246213
-6.99142e-06
0.000246897
-6.65099e-06
0.000247558
-6.28726e-06
0.000248196
-5.89922e-06
0.000248815
-5.48594e-06
0.000249414
-5.04653e-06
0.000249999
-4.58022e-06
0.000250571
-4.08641e-06
0.000251136
-3.56468e-06
0.000251699
-3.01492e-06
0.000252268
-2.43737e-06
0.000252849
-1.83275e-06
0.000253452
-1.20225e-06
0.000254088
-5.47579e-07
0.000254767
1.28904e-07
0.000255502
8.23069e-07
0.000256304
1.52952e-06
0.000257187
2.24258e-06
0.000258163
2.95543e-06
0.000259243
3.66028e-06
0.000260434
4.34857e-06
0.000261743
5.01118e-06
0.000263169
5.63889e-06
0.000264709
6.22285e-06
0.000266353
6.75538e-06
7.23092e-06
0.000268086
0.000209841
-1.19742e-06
0.000210068
-2.37211e-06
0.000210399
-3.38981e-06
0.000210823
-4.28797e-06
0.000211331
-5.08739e-06
0.000211914
-5.80228e-06
0.000212565
-6.44446e-06
0.000213277
-7.02373e-06
0.000214044
-7.54804e-06
0.000214861
-8.02385e-06
0.000215722
-8.45644e-06
0.000216624
-8.85019e-06
0.000217563
-9.20868e-06
0.000218534
-9.53489e-06
0.000219535
-9.83125e-06
0.000220562
-1.00998e-05
0.000221613
-1.03422e-05
0.000222683
-1.056e-05
0.000223772
-1.07542e-05
0.000224876
-1.09261e-05
0.000225993
-1.10767e-05
0.00022712
-1.12068e-05
0.000228256
-1.13176e-05
0.000229398
-1.14099e-05
0.000230544
-1.14848e-05
0.000231693
-1.15433e-05
0.000232842
-1.15863e-05
0.00023399
-1.16148e-05
0.000235136
-1.16299e-05
0.000236278
-1.16323e-05
0.000237415
-1.16229e-05
0.000238545
-1.16024e-05
0.000239668
-1.15715e-05
0.000240781
-1.15307e-05
0.000241886
-1.14802e-05
0.000242979
-1.14203e-05
0.000244061
-1.13511e-05
0.00024513
-1.12726e-05
0.000246186
-1.11846e-05
0.000247228
-1.10868e-05
0.000248255
-1.0979e-05
0.000249267
-1.08605e-05
0.000250261
-1.07309e-05
0.000251239
-1.05897e-05
0.000252198
-1.04361e-05
0.000253139
-1.02694e-05
0.00025406
-1.00889e-05
0.00025496
-9.89397e-06
0.00025584
-9.68368e-06
0.000256699
-9.4573e-06
0.000257536
-9.21403e-06
0.000258351
-8.95307e-06
0.000259143
-8.67363e-06
0.000259914
-8.37492e-06
0.000260662
-8.0562e-06
0.000261389
-7.71672e-06
0.000262096
-7.35582e-06
0.000262783
-6.97285e-06
0.000263453
-6.56728e-06
0.000264107
-6.13868e-06
0.000264749
-5.68674e-06
0.000265382
-5.21136e-06
0.000266009
-4.71264e-06
0.000266637
-4.19094e-06
0.000267271
-3.64699e-06
0.000267917
-3.08188e-06
0.000268583
-2.49715e-06
0.000269277
-1.89485e-06
0.000270008
-1.27749e-06
0.000270786
-6.47973e-07
0.00027162
-9.61707e-09
0.000272519
6.32559e-07
0.00027349
1.27281e-06
0.000274541
1.90517e-06
0.000275679
2.52356e-06
0.000276908
3.12153e-06
0.000278228
3.6927e-06
0.000279637
4.23094e-06
0.00028113
4.73073e-06
0.000282699
5.18767e-06
5.59903e-06
0.000284332
0.000224533
-1.31098e-06
0.000224767
-2.60563e-06
0.000225108
-3.73089e-06
0.000225546
-4.72553e-06
0.000226072
-5.61189e-06
0.000226675
-6.40511e-06
0.000227349
-7.11781e-06
0.000228087
-7.76061e-06
0.000228882
-8.34219e-06
0.000229729
-8.86965e-06
0.000230622
-9.34881e-06
0.000231558
-9.78448e-06
0.000232531
-1.01807e-05
0.000233539
-1.05407e-05
0.000234576
-1.08672e-05
0.000235641
-1.11626e-05
0.000236729
-1.14286e-05
0.000237838
-1.1667e-05
0.000238964
-1.18791e-05
0.000240106
-1.20661e-05
0.000241261
-1.22291e-05
0.000242425
-1.23694e-05
0.000243598
-1.24879e-05
0.000244775
-1.25858e-05
0.000245957
-1.26641e-05
0.00024714
-1.2724e-05
0.000248322
-1.27666e-05
0.000249503
-1.2793e-05
0.000250679
-1.28043e-05
0.000251851
-1.28014e-05
0.000253016
-1.27854e-05
0.000254172
-1.2757e-05
0.00025532
-1.2717e-05
0.000256458
-1.26659e-05
0.000257584
-1.26041e-05
0.000258698
-1.2532e-05
0.000259799
-1.24497e-05
0.000260886
-1.23572e-05
0.000261958
-1.22545e-05
0.000263015
-1.21411e-05
0.000264055
-1.2017e-05
0.000265078
-1.18815e-05
0.000266084
-1.17343e-05
0.000267071
-1.15746e-05
0.000268039
-1.14021e-05
0.000268988
-1.12159e-05
0.000269916
-1.10155e-05
0.000270825
-1.08e-05
0.000271712
-1.0569e-05
0.000272578
-1.03216e-05
0.000273424
-1.00572e-05
0.000274248
-9.77526e-06
0.000275051
-9.47505e-06
0.000275834
-9.15606e-06
0.000276598
-8.8178e-06
0.000277343
-8.45983e-06
0.000278071
-8.08182e-06
0.000278783
-7.68353e-06
0.000279483
-7.26486e-06
0.000280171
-6.82585e-06
0.000280853
-6.36672e-06
0.000281531
-5.88792e-06
0.000282211
-5.39014e-06
0.000282896
-4.87434e-06
0.000283592
-4.34181e-06
0.000284306
-3.79419e-06
0.000285044
-3.23353e-06
0.000285813
-2.66224e-06
0.00028662
-2.08315e-06
0.000287473
-1.49941e-06
0.00028838
-9.14455e-07
0.000289345
-3.31624e-07
0.000290375
2.44683e-07
0.000291472
8.09423e-07
0.00029264
1.35747e-06
0.000293878
1.88405e-06
0.000295188
2.38487e-06
0.000296564
2.85587e-06
0.000298002
3.2937e-06
0.000299496
3.69587e-06
4.06126e-06
0.000301035
0.000240254
-1.42742e-06
0.000240494
-2.84515e-06
0.000240845
-4.08137e-06
0.000241296
-5.1758e-06
0.000241836
-6.15223e-06
0.000242459
-7.0267e-06
0.000243154
-7.81259e-06
0.000243916
-8.52134e-06
0.000244737
-9.16234e-06
0.000245612
-9.74332e-06
0.000246535
-1.02707e-05
0.000247502
-1.07496e-05
0.000248507
-1.11846e-05
0.000249547
-1.15793e-05
0.000250618
-1.19367e-05
0.000251717
-1.22593e-05
0.000252839
-1.25492e-05
0.000253983
-1.28083e-05
0.000255143
-1.3038e-05
0.000256319
-1.32399e-05
0.000257507
-1.3415e-05
0.000258705
-1.35648e-05
0.000259909
-1.36903e-05
0.000261119
-1.37928e-05
0.000262331
-1.38736e-05
0.000263543
-1.39339e-05
0.000264753
-1.39749e-05
0.000265961
-1.39978e-05
0.000267163
-1.4004e-05
0.000268358
-1.39944e-05
0.000269546
-1.39703e-05
0.000270723
-1.39324e-05
0.000271891
-1.38816e-05
0.000273046
-1.38187e-05
0.000274188
-1.37441e-05
0.000275317
-1.36581e-05
0.000276431
-1.35611e-05
0.000277529
-1.34531e-05
0.000278611
-1.3334e-05
0.000279676
-1.32037e-05
0.000280724
-1.30619e-05
0.000281753
-1.29083e-05
0.000282763
-1.27422e-05
0.000283754
-1.25634e-05
0.000284726
-1.23711e-05
0.000285677