/*--------------------------------*- C++ -*----------------------------------*\
| =========                 |                                                 |
| \\      /  F ield         | OpenFOAM: The Open Source CFD Toolbox           |
|  \\    /   O peration     | Version:  2106                                  |
|   \\  /    A nd           | Website:  www.openfoam.com                      |
|    \\/     M anipulation  |                                                 |
\*---------------------------------------------------------------------------*/
FoamFile
{
    version     2.0;
    format      ascii;
    arch        "LSB;label=32;scalar=64";
    class       volScalarField;
    location    "3.2";
    object      T;
}
// * * * * * * * * * * * * * * * * * * * * * * * * * * * * * * * * * * * * * //

dimensions      [0 0 0 1 0 0 0];

internalField   nonuniform List<scalar> 
12013
(
300.002
300.007
300.012
300.017
300.023
300.028
300.034
300.041
300.047
300.054
300.062
300.069
300.078
300.086
300.095
300.105
300.115
300.125
300.136
300.148
300.16
300.173
300.186
300.2
300.214
300.229
300.245
300.261
300.278
300.296
300.315
300.334
300.354
300.374
300.395
300.417
300.44
300.464
300.488
300.514
300.54
300.567
300.595
300.623
300.653
300.683
300.715
300.747
300.78
300.815
300.85
300.887
300.924
300.963
301.002
301.043
301.085
301.128
301.173
301.219
301.266
301.315
301.365
301.417
301.47
301.526
301.583
301.642
301.703
301.767
301.833
301.902
301.974
302.05
302.131
302.216
302.307
302.405
302.514
302.637
302.784
300.002
300.007
300.012
300.017
300.023
300.028
300.034
300.041
300.047
300.054
300.062
300.069
300.078
300.086
300.095
300.105
300.115
300.125
300.136
300.148
300.16
300.173
300.186
300.2
300.214
300.229
300.245
300.261
300.278
300.296
300.315
300.334
300.353
300.374
300.395
300.417
300.44
300.464
300.488
300.514
300.54
300.567
300.594
300.623
300.653
300.683
300.715
300.747
300.78
300.815
300.85
300.886
300.924
300.962
301.002
301.043
301.085
301.128
301.173
301.219
301.266
301.314
301.365
301.416
301.47
301.525
301.582
301.641
301.702
301.765
301.831
301.9
301.972
302.047
302.127
302.211
302.3
302.397
302.501
302.616
302.742
300.002
300.007
300.012
300.017
300.023
300.028
300.034
300.041
300.047
300.054
300.062
300.069
300.078
300.086
300.095
300.105
300.115
300.125
300.136
300.148
300.16
300.173
300.186
300.2
300.214
300.229
300.245
300.261
300.278
300.296
300.314
300.334
300.353
300.374
300.395
300.417
300.44
300.464
300.488
300.513
300.54
300.566
300.594
300.623
300.652
300.683
300.714
300.747
300.78
300.814
300.85
300.886
300.923
300.962
301.001
301.042
301.084
301.127
301.172
301.218
301.265
301.313
301.363
301.415
301.468
301.523
301.58
301.638
301.699
301.762
301.828
301.896
301.967
302.041
302.119
302.201
302.288
302.379
302.477
302.58
302.688
300.002
300.007
300.012
300.017
300.023
300.028
300.034
300.041
300.047
300.054
300.062
300.069
300.078
300.086
300.095
300.105
300.115
300.125
300.136
300.148
300.16
300.173
300.186
300.2
300.214
300.229
300.245
300.261
300.278
300.296
300.314
300.333
300.353
300.374
300.395
300.417
300.44
300.464
300.488
300.513
300.539
300.566
300.594
300.623
300.652
300.683
300.714
300.746
300.779
300.814
300.849
300.885
300.923
300.961
301.001
301.041
301.083
301.126
301.17
301.216
301.263
301.311
301.361
301.412
301.465
301.52
301.576
301.634
301.694
301.757
301.821
301.888
301.958
302.031
302.106
302.186
302.268
302.355
302.444
302.537
302.63
300.002
300.007
300.012
300.017
300.023
300.028
300.034
300.041
300.047
300.054
300.062
300.069
300.078
300.086
300.095
300.105
300.115
300.125
300.136
300.148
300.16
300.173
300.186
300.2
300.214
300.229
300.245
300.261
300.278
300.296
300.314
300.333
300.353
300.374
300.395
300.417
300.44
300.463
300.488
300.513
300.539
300.566
300.593
300.622
300.652
300.682
300.713
300.745
300.779
300.813
300.848
300.884
300.921
300.96
300.999
301.04
301.081
301.124
301.168
301.214
301.26
301.308
301.358
301.409
301.461
301.515
301.571
301.628
301.688
301.749
301.812
301.878
301.946
302.016
302.089
302.165
302.243
302.323
302.406
302.489
302.571
300.002
300.007
300.012
300.017
300.023
300.028
300.034
300.041
300.047
300.054
300.062
300.069
300.078
300.086
300.095
300.105
300.115
300.125
300.136
300.148
300.16
300.172
300.186
300.2
300.214
300.229
300.245
300.261
300.278
300.296
300.314
300.333
300.353
300.373
300.395
300.417
300.439
300.463
300.487
300.512
300.538
300.565
300.593
300.621
300.651
300.681
300.712
300.744
300.777
300.812
300.847
300.883
300.92
300.958
300.997
301.037
301.079
301.122
301.165
301.21
301.257
301.304
301.353
301.404
301.456
301.509
301.564
301.62
301.679
301.739
301.801
301.865
301.93
301.998
302.068
302.139
302.212
302.287
302.362
302.437
302.511
300.002
300.007
300.012
300.017
300.023
300.028
300.034
300.041
300.047
300.054
300.062
300.069
300.077
300.086
300.095
300.105
300.115
300.125
300.136
300.148
300.16
300.172
300.186
300.199
300.214
300.229
300.244
300.261
300.278
300.295
300.314
300.333
300.352
300.373
300.394
300.416
300.439
300.462
300.487
300.512
300.538
300.564
300.592
300.62
300.65
300.68
300.711
300.743
300.776
300.81
300.845
300.881
300.918
300.956
300.995
301.035
301.076
301.118
301.161
301.206
301.252
301.299
301.348
301.397
301.448
301.501
301.555
301.61
301.667
301.726
301.786
301.848
301.911
301.975
302.042
302.109
302.177
302.246
302.315
302.384
302.451
300.002
300.007
300.012
300.017
300.023
300.028
300.034
300.04
300.047
300.054
300.061
300.069
300.077
300.086
300.095
300.105
300.115
300.125
300.136
300.147
300.16
300.172
300.185
300.199
300.213
300.228
300.244
300.26
300.277
300.295
300.313
300.332
300.352
300.372
300.393
300.415
300.438
300.461
300.486
300.511
300.537
300.563
300.591
300.619
300.648
300.678
300.709
300.741
300.774
300.808
300.842
300.878
300.915
300.952
300.991
301.031
301.072
301.114
301.157
301.201
301.246
301.293
301.34
301.389
301.439
301.491
301.544
301.598
301.653
301.71
301.768
301.827
301.888
301.949
302.012
302.075
302.139
302.203
302.266
302.329
302.39
300.002
300.007
300.012
300.017
300.022
300.028
300.034
300.04
300.047
300.054
300.061
300.069
300.077
300.086
300.095
300.104
300.114
300.125
300.136
300.147
300.159
300.172
300.185
300.199
300.213
300.228
300.244
300.26
300.277
300.294
300.313
300.332
300.351
300.372
300.393
300.415
300.437
300.461
300.485
300.51
300.535
300.562
300.589
300.617
300.647
300.676
300.707
300.739
300.772
300.805
300.84
300.875
300.911
300.949
300.987
301.026
301.067
301.108
301.151
301.194
301.239
301.284
301.331
301.379
301.428
301.479
301.53
301.582
301.636
301.691
301.746
301.803
301.861
301.919
301.978
302.037
302.097
302.156
302.215
302.272
302.329
300.002
300.007
300.012
300.017
300.022
300.028
300.034
300.04
300.047
300.054
300.061
300.069
300.077
300.086
300.095
300.104
300.114
300.125
300.136
300.147
300.159
300.172
300.185
300.198
300.213
300.228
300.243
300.259
300.276
300.294
300.312
300.331
300.35
300.371
300.392
300.414
300.436
300.459
300.483
300.508
300.534
300.56
300.587
300.615
300.644
300.674
300.705
300.736
300.769
300.802
300.836
300.871
300.907
300.944
300.982
301.021
301.06
301.101
301.143
301.186
301.23
301.274
301.32
301.367
301.415
301.464
301.514
301.564
301.616
301.669
301.722
301.776
301.831
301.886
301.941
301.996
302.052
302.107
302.161
302.214
302.267
300.002
300.007
300.012
300.017
300.022
300.028
300.034
300.04
300.047
300.054
300.061
300.069
300.077
300.086
300.095
300.104
300.114
300.124
300.135
300.147
300.159
300.171
300.184
300.198
300.212
300.227
300.243
300.259
300.276
300.293
300.311
300.33
300.35
300.37
300.391
300.412
300.435
300.458
300.482
300.506
300.532
300.558
300.585
300.613
300.642
300.671
300.702
300.733
300.765
300.798
300.832
300.866
300.902
300.938
300.976
301.014
301.053
301.093
301.134
301.176
301.219
301.263
301.307
301.353
301.399
301.447
301.495
301.544
301.593
301.643
301.694
301.746
301.797
301.849
301.901
301.953
302.004
302.055
302.106
302.155
302.204
300.002
300.007
300.012
300.017
300.022
300.028
300.034
300.04
300.047
300.054
300.061
300.069
300.077
300.085
300.094
300.104
300.114
300.124
300.135
300.146
300.158
300.171
300.184
300.197
300.212
300.227
300.242
300.258
300.275
300.292
300.31
300.329
300.348
300.368
300.389
300.411
300.433
300.456
300.48
300.504
300.53
300.556
300.582
300.61
300.639
300.668
300.698
300.729
300.76
300.793
300.826
300.86
300.895
300.931
300.968
301.006
301.044
301.083
301.124
301.165
301.206
301.249
301.292
301.336
301.381
301.427
301.473
301.52
301.567
301.615
301.664
301.712
301.761
301.81
301.858
301.907
301.955
302.002
302.049
302.095
302.14
300.002
300.007
300.012
300.017
300.022
300.028
300.034
300.04
300.047
300.054
300.061
300.069
300.077
300.085
300.094
300.104
300.113
300.124
300.135
300.146
300.158
300.17
300.183
300.197
300.211
300.226
300.241
300.257
300.274
300.291
300.309
300.328
300.347
300.367
300.388
300.409
300.431
300.454
300.477
300.502
300.527
300.553
300.579
300.607
300.635
300.664
300.693
300.724
300.755
300.787
300.82
300.854
300.888
300.923
300.959
300.996
301.034
301.072
301.111
301.151
301.192
301.233
301.275
301.318
301.361
301.405
301.449
301.494
301.539
301.584
301.63
301.676
301.722
301.767
301.813
301.858
301.903
301.947
301.991
302.034
302.076
300.002
300.007
300.012
300.017
300.022
300.028
300.034
300.04
300.047
300.053
300.061
300.068
300.076
300.085
300.094
300.103
300.113
300.123
300.134
300.145
300.157
300.17
300.183
300.196
300.21
300.225
300.24
300.256
300.273
300.29
300.308
300.326
300.345
300.365
300.386
300.407
300.429
300.451
300.475
300.499
300.524
300.549
300.575
300.602
300.63
300.659
300.688
300.718
300.749
300.78
300.813
300.846
300.879
300.914
300.949
300.985
301.022
301.059
301.097
301.136
301.175
301.215
301.255
301.296
301.338
301.38
301.422
301.465
301.507
301.55
301.594
301.637
301.68
301.723
301.765
301.808
301.85
301.891
301.932
301.972
302.011
300.002
300.007
300.012
300.017
300.022
300.028
300.034
300.04
300.046
300.053
300.06
300.068
300.076
300.085
300.093
300.103
300.112
300.123
300.134
300.145
300.157
300.169
300.182
300.195
300.209
300.224
300.239
300.255
300.271
300.288
300.306
300.324
300.343
300.363
300.383
300.404
300.426
300.448
300.471
300.495
300.52
300.545
300.571
300.597
300.625
300.653
300.682
300.711
300.741
300.772
300.804
300.836
300.869
300.903
300.937
300.972
301.008
301.044
301.081
301.118
301.156
301.194
301.233
301.273
301.312
301.352
301.392
301.433
301.473
301.514
301.555
301.595
301.636
301.676
301.716
301.755
301.794
301.833
301.871
301.908
301.945
300.002
300.007
300.012
300.017
300.022
300.028
300.034
300.04
300.046
300.053
300.06
300.068
300.076
300.084
300.093
300.102
300.112
300.122
300.133
300.144
300.156
300.168
300.181
300.194
300.208
300.222
300.238
300.253
300.269
300.286
300.304
300.322
300.341
300.36
300.38
300.401
300.423
300.445
300.468
300.491
300.515
300.54
300.565
300.592
300.619
300.646
300.674
300.703
300.733
300.763
300.794
300.825
300.858
300.89
300.924
300.957
300.992
301.027
301.062
301.098
301.135
301.172
301.209
301.246
301.284
301.322
301.36
301.398
301.437
301.475
301.513
301.551
301.589
301.627
301.664
301.701
301.737
301.773
301.809
301.844
301.878
300.002
300.007
300.012
300.017
300.022
300.027
300.033
300.039
300.046
300.053
300.06
300.067
300.075
300.084
300.092
300.102
300.111
300.121
300.132
300.143
300.155
300.167
300.18
300.193
300.207
300.221
300.236
300.251
300.267
300.284
300.302
300.319
300.338
300.357
300.377
300.398
300.419
300.441
300.463
300.486
300.51
300.534
300.559
300.585
300.611
300.638
300.666
300.694
300.723
300.752
300.782
300.813
300.844
300.876
300.908
300.941
300.974
301.008
301.042
301.076
301.111
301.146
301.182
301.218
301.253
301.289
301.325
301.362
301.398
301.434
301.47
301.505
301.541
301.576
301.611
301.645
301.679
301.713
301.746
301.778
301.81
300.002
300.007
300.012
300.017
300.022
300.027
300.033
300.039
300.046
300.052
300.06
300.067
300.075
300.083
300.092
300.101
300.111
300.121
300.131
300.142
300.154
300.166
300.178
300.191
300.205
300.219
300.234
300.249
300.265
300.282
300.299
300.316
300.335
300.354
300.373
300.393
300.414
300.436
300.458
300.48
300.504
300.528
300.552
300.577
300.603
300.629
300.656
300.684
300.712
300.74
300.77
300.799
300.829
300.86
300.891
300.923
300.954
300.987
301.019
301.052
301.086
301.119
301.153
301.187
301.22
301.254
301.288
301.322
301.356
301.39
301.424
301.457
301.49
301.523
301.556
301.588
301.62
301.651
301.682
301.712
301.742
300.002
300.007
300.011
300.016
300.022
300.027
300.033
300.039
300.045
300.052
300.059
300.066
300.074
300.082
300.091
300.1
300.11
300.12
300.13
300.141
300.152
300.164
300.177
300.19
300.203
300.217
300.232
300.247
300.262
300.279
300.296
300.313
300.331
300.35
300.369
300.389
300.409
300.43
300.452
300.474
300.497
300.52
300.544
300.568
300.594
300.619
300.645
300.672
300.699
300.727
300.755
300.784
300.813
300.842
300.872
300.902
300.933
300.964
300.995
301.026
301.058
301.089
301.121
301.153
301.185
301.217
301.249
301.281
301.313
301.345
301.376
301.407
301.438
301.469
301.499
301.529
301.559
301.588
301.617
301.645
301.673
300.002
300.007
300.011
300.016
300.021
300.027
300.033
300.039
300.045
300.052
300.059
300.066
300.074
300.082
300.09
300.099
300.109
300.118
300.129
300.139
300.151
300.162
300.175
300.187
300.201
300.215
300.229
300.244
300.259
300.275
300.292
300.309
300.327
300.345
300.364
300.383
300.403
300.424
300.445
300.466
300.489
300.511
300.535
300.559
300.583
300.608
300.633
300.659
300.685
300.712
300.739
300.766
300.794
300.822
300.851
300.88
300.909
300.938
300.968
300.998
301.027
301.057
301.088
301.118
301.148
301.178
301.208
301.238
301.268
301.297
301.327
301.356
301.385
301.413
301.441
301.469
301.497
301.524
301.551
301.577
301.603
300.002
300.007
300.011
300.016
300.021
300.027
300.032
300.038
300.044
300.051
300.058
300.065
300.073
300.081
300.089
300.098
300.107
300.117
300.127
300.138
300.149
300.16
300.173
300.185
300.198
300.212
300.226
300.241
300.256
300.271
300.288
300.304
300.322
300.34
300.358
300.377
300.396
300.416
300.437
300.458
300.48
300.502
300.524
300.547
300.571
300.595
300.619
300.644
300.669
300.695
300.721
300.747
300.774
300.801
300.828
300.855
300.883
300.911
300.939
300.967
300.995
301.023
301.052
301.08
301.108
301.137
301.165
301.193
301.22
301.248
301.275
301.303
301.329
301.356
301.382
301.408
301.434
301.459
301.484
301.509
301.533
300.002
300.007
300.011
300.016
300.021
300.026
300.032
300.038
300.044
300.05
300.057
300.064
300.072
300.08
300.088
300.097
300.106
300.116
300.126
300.136
300.147
300.158
300.17
300.182
300.195
300.209
300.222
300.237
300.252
300.267
300.283
300.299
300.316
300.334
300.351
300.37
300.389
300.408
300.428
300.449
300.469
300.491
300.513
300.535
300.557
300.58
300.604
300.628
300.652
300.676
300.701
300.726
300.752
300.777
300.803
300.829
300.855
300.881
300.908
300.934
300.961
300.987
301.014
301.041
301.067
301.093
301.12
301.146
301.172
301.197
301.223
301.248
301.273
301.298
301.322
301.346
301.37
301.394
301.417
301.44
301.462
300.002
300.006
300.011
300.016
300.021
300.026
300.031
300.037
300.043
300.05
300.056
300.063
300.071
300.079
300.087
300.095
300.104
300.114
300.124
300.134
300.145
300.156
300.167
300.179
300.192
300.205
300.218
300.232
300.247
300.262
300.277
300.293
300.31
300.327
300.344
300.362
300.38
300.399
300.418
300.438
300.458
300.479
300.5
300.521
300.543
300.565
300.587
300.61
300.633
300.656
300.68
300.704
300.728
300.752
300.776
300.801
300.825
300.85
300.875
300.9
300.925
300.95
300.974
300.999
301.024
301.049
301.073
301.097
301.121
301.145
301.169
301.192
301.216
301.239
301.261
301.284
301.306
301.327
301.349
301.37
301.391
300.002
300.006
300.011
300.016
300.02
300.026
300.031
300.037
300.043
300.049
300.056
300.062
300.07
300.077
300.085
300.094
300.103
300.112
300.121
300.131
300.142
300.153
300.164
300.176
300.188
300.201
300.214
300.228
300.242
300.256
300.271
300.287
300.303
300.319
300.336
300.353
300.371
300.389
300.407
300.426
300.446
300.465
300.485
300.506
300.526
300.547
300.569
300.59
300.612
300.634
300.657
300.679
300.702
300.725
300.748
300.771
300.794
300.817
300.84
300.864
300.887
300.91
300.933
300.956
300.979
301.002
301.025
301.047
301.07
301.092
301.114
301.136
301.157
301.178
301.199
301.22
301.241
301.261
301.281
301.3
301.319
300.002
300.006
300.011
300.015
300.02
300.025
300.03
300.036
300.042
300.048
300.054
300.061
300.068
300.076
300.084
300.092
300.101
300.11
300.119
300.129
300.139
300.149
300.161
300.172
300.184
300.196
300.209
300.222
300.236
300.25
300.264
300.279
300.295
300.31
300.327
300.343
300.36
300.378
300.395
300.413
300.432
300.451
300.47
300.489
300.509
300.529
300.549
300.57
300.59
300.611
300.632
300.653
300.675
300.696
300.718
300.739
300.761
300.783
300.804
300.826
300.848
300.869
300.891
300.912
300.933
300.955
300.976
300.997
301.017
301.038
301.058
301.078
301.098
301.118
301.137
301.156
301.175
301.194
301.212
301.23
301.248
300.002
300.006
300.01
300.015
300.02
300.025
300.03
300.035
300.041
300.047
300.053
300.06
300.067
300.074
300.082
300.09
300.098
300.107
300.116
300.126
300.136
300.146
300.157
300.168
300.179
300.191
300.203
300.216
300.229
300.243
300.257
300.271
300.286
300.301
300.317
300.332
300.349
300.365
300.382
300.399
300.417
300.435
300.453
300.471
300.49
300.509
300.528
300.547
300.567
300.586
300.606
300.626
300.646
300.666
300.686
300.706
300.726
300.746
300.767
300.787
300.807
300.827
300.847
300.867
300.886
300.906
300.925
300.945
300.964
300.983
301.001
301.02
301.038
301.056
301.074
301.092
301.109
301.126
301.143
301.16
301.176
300.002
300.006
300.01
300.015
300.019
300.024
300.029
300.034
300.04
300.046
300.052
300.058
300.065
300.072
300.08
300.088
300.096
300.104
300.113
300.122
300.132
300.142
300.152
300.163
300.174
300.185
300.197
300.209
300.222
300.235
300.248
300.262
300.276
300.291
300.306
300.321
300.336
300.352
300.368
300.384
300.401
300.418
300.435
300.452
300.47
300.487
300.505
300.523
300.542
300.56
300.578
300.597
300.616
300.634
300.653
300.672
300.69
300.709
300.728
300.746
300.765
300.783
300.802
300.82
300.838
300.856
300.874
300.892
300.91
300.927
300.944
300.961
300.978
300.995
301.011
301.027
301.043
301.059
301.075
301.09
301.105
300.002
300.006
300.01
300.014
300.019
300.023
300.028
300.033
300.039
300.045
300.051
300.057
300.063
300.07
300.077
300.085
300.093
300.101
300.11
300.118
300.128
300.137
300.147
300.157
300.168
300.179
300.19
300.202
300.214
300.227
300.239
300.252
300.266
300.28
300.294
300.308
300.323
300.337
300.353
300.368
300.384
300.399
300.415
300.432
300.448
300.465
300.481
300.498
300.515
300.532
300.55
300.567
300.584
300.601
300.619
300.636
300.653
300.671
300.688
300.705
300.722
300.739
300.756
300.773
300.79
300.806
300.823
300.839
300.855
300.871
300.887
300.902
300.918
300.933
300.948
300.963
300.978
300.992
301.006
301.021
301.034
300.002
300.006
300.01
300.014
300.018
300.023
300.027
300.032
300.038
300.043
300.049
300.055
300.061
300.068
300.075
300.082
300.09
300.098
300.106
300.114
300.123
300.132
300.142
300.152
300.162
300.172
300.183
300.194
300.206
300.218
300.23
300.242
300.255
300.268
300.281
300.294
300.308
300.322
300.336
300.351
300.365
300.38
300.395
300.41
300.426
300.441
300.457
300.472
300.488
300.504
300.52
300.536
300.552
300.568
300.584
300.599
300.615
300.631
300.647
300.663
300.679
300.694
300.71
300.725
300.74
300.756
300.771
300.786
300.8
300.815
300.829
300.844
300.858
300.872
300.885
300.899
300.912
300.926
300.939
300.952
300.964
300.002
300.005
300.009
300.013
300.018
300.022
300.027
300.031
300.036
300.042
300.047
300.053
300.059
300.066
300.072
300.079
300.086
300.094
300.102
300.11
300.118
300.127
300.136
300.145
300.155
300.165
300.175
300.186
300.197
300.208
300.219
300.231
300.243
300.255
300.267
300.28
300.293
300.306
300.319
300.333
300.346
300.36
300.374
300.388
300.402
300.417
300.431
300.445
300.46
300.474
300.489
300.504
300.518
300.533
300.548
300.562
300.577
300.591
300.606
300.62
300.635
300.649
300.663
300.677
300.691
300.705
300.719
300.732
300.746
300.759
300.772
300.785
300.798
300.811
300.823
300.836
300.848
300.86
300.872
300.883
300.895
300.002
300.005
300.009
300.013
300.017
300.021
300.025
300.03
300.035
300.04
300.045
300.051
300.057
300.063
300.069
300.076
300.083
300.09
300.097
300.105
300.113
300.121
300.13
300.139
300.148
300.157
300.167
300.177
300.187
300.197
300.208
300.219
300.23
300.242
300.253
300.265
300.277
300.289
300.301
300.314
300.326
300.339
300.352
300.365
300.378
300.391
300.405
300.418
300.431
300.445
300.458
300.471
300.485
300.498
300.512
300.525
300.538
300.551
300.565
300.578
300.591
300.604
300.617
300.629
300.642
300.655
300.667
300.68
300.692
300.704
300.716
300.728
300.739
300.751
300.762
300.773
300.784
300.795
300.806
300.817
300.827
300.002
300.005
300.009
300.012
300.016
300.02
300.024
300.029
300.033
300.038
300.043
300.049
300.054
300.06
300.066
300.072
300.079
300.086
300.093
300.1
300.107
300.115
300.123
300.132
300.14
300.149
300.158
300.167
300.177
300.187
300.197
300.207
300.217
300.228
300.238
300.249
300.26
300.272
300.283
300.294
300.306
300.318
300.33
300.342
300.354
300.366
300.378
300.39
300.402
300.414
300.427
300.439
300.451
300.463
300.475
300.487
300.5
300.512
300.524
300.535
300.547
300.559
300.571
300.582
300.594
300.605
300.616
300.628
300.639
300.649
300.66
300.671
300.681
300.692
300.702
300.712
300.722
300.732
300.742
300.751
300.761
300.002
300.005
300.008
300.012
300.015
300.019
300.023
300.027
300.032
300.036
300.041
300.046
300.052
300.057
300.063
300.069
300.075
300.081
300.088
300.095
300.102
300.109
300.117
300.124
300.132
300.141
300.149
300.158
300.166
300.175
300.185
300.194
300.204
300.213
300.223
300.233
300.244
300.254
300.264
300.275
300.286
300.296
300.307
300.318
300.329
300.34
300.351
300.362
300.373
300.384
300.395
300.406
300.417
300.428
300.439
300.45
300.461
300.472
300.483
300.494
300.504
300.515
300.526
300.536
300.546
300.557
300.567
300.577
300.587
300.597
300.606
300.616
300.625
300.635
300.644
300.653
300.662
300.671
300.68
300.688
300.697
300.001
300.005
300.008
300.011
300.015
300.018
300.022
300.026
300.03
300.035
300.039
300.044
300.049
300.054
300.059
300.065
300.071
300.077
300.083
300.089
300.096
300.103
300.11
300.117
300.124
300.132
300.14
300.148
300.156
300.164
300.173
300.181
300.19
300.199
300.208
300.217
300.227
300.236
300.246
300.255
300.265
300.275
300.285
300.295
300.305
300.314
300.324
300.335
300.345
300.355
300.365
300.375
300.385
300.395
300.404
300.414
300.424
300.434
300.444
300.453
300.463
300.472
300.482
300.491
300.501
300.51
300.519
300.528
300.537
300.546
300.554
300.563
300.571
300.58
300.588
300.596
300.604
300.612
300.62
300.628
300.635
300.001
300.004
300.007
300.01
300.014
300.017
300.021
300.025
300.028
300.033
300.037
300.041
300.046
300.051
300.056
300.061
300.066
300.072
300.078
300.084
300.09
300.096
300.103
300.109
300.116
300.123
300.13
300.138
300.145
300.153
300.161
300.169
300.177
300.185
300.193
300.202
300.21
300.219
300.228
300.236
300.245
300.254
300.263
300.272
300.281
300.29
300.299
300.308
300.317
300.326
300.335
300.344
300.353
300.362
300.371
300.38
300.389
300.397
300.406
300.415
300.423
300.432
300.44
300.449
300.457
300.465
300.473
300.481
300.489
300.497
300.505
300.513
300.52
300.528
300.535
300.543
300.55
300.557
300.564
300.571
300.578
300.001
300.004
300.007
300.01
300.013
300.016
300.02
300.023
300.027
300.031
300.035
300.039
300.043
300.048
300.052
300.057
300.062
300.067
300.073
300.078
300.084
300.09
300.096
300.102
300.108
300.115
300.121
300.128
300.135
300.142
300.149
300.157
300.164
300.171
300.179
300.187
300.194
300.202
300.21
300.218
300.226
300.234
300.242
300.25
300.258
300.266
300.274
300.283
300.291
300.299
300.307
300.315
300.323
300.331
300.339
300.347
300.355
300.363
300.371
300.378
300.386
300.394
300.401
300.409
300.416
300.424
300.431
300.438
300.445
300.452
300.459
300.466
300.473
300.479
300.486
300.493
300.499
300.505
300.512
300.518
300.524
300.001
300.004
300.007
300.009
300.012
300.015
300.018
300.022
300.025
300.029
300.033
300.036
300.04
300.045
300.049
300.054
300.058
300.063
300.068
300.073
300.078
300.084
300.089
300.095
300.101
300.107
300.113
300.119
300.125
300.132
300.138
300.145
300.152
300.159
300.166
300.172
300.18
300.187
300.194
300.201
300.208
300.215
300.223
300.23
300.237
300.245
300.252
300.259
300.267
300.274
300.281
300.289
300.296
300.303
300.31
300.317
300.324
300.331
300.338
300.345
300.352
300.359
300.366
300.373
300.379
300.386
300.392
300.399
300.405
300.411
300.418
300.424
300.43
300.436
300.442
300.447
300.453
300.459
300.464
300.47
300.475
300.001
300.004
300.006
300.009
300.012
300.014
300.017
300.02
300.024
300.027
300.031
300.034
300.038
300.042
300.046
300.05
300.055
300.059
300.064
300.068
300.073
300.078
300.084
300.089
300.094
300.1
300.105
300.111
300.117
300.123
300.129
300.135
300.141
300.147
300.154
300.16
300.166
300.173
300.179
300.186
300.192
300.199
300.206
300.212
300.219
300.225
300.232
300.239
300.245
300.252
300.259
300.265
300.272
300.278
300.285
300.291
300.298
300.304
300.31
300.316
300.323
300.329
300.335
300.341
300.347
300.353
300.359
300.364
300.37
300.376
300.381
300.387
300.392
300.398
300.403
300.408
300.413
300.418
300.423
300.428
300.433
300.001
300.003
300.006
300.008
300.011
300.014
300.016
300.019
300.022
300.026
300.029
300.032
300.036
300.04
300.044
300.047
300.052
300.056
300.06
300.065
300.069
300.074
300.079
300.084
300.089
300.094
300.099
300.104
300.11
300.115
300.121
300.126
300.132
300.138
300.143
300.149
300.155
300.161
300.167
300.173
300.179
300.185
300.191
300.197
300.204
300.21
300.216
300.222
300.228
300.234
300.24
300.246
300.252
300.258
300.264
300.27
300.275
300.281
300.287
300.293
300.298
300.304
300.309
300.315
300.32
300.326
300.331
300.336
300.341
300.347
300.352
300.357
300.362
300.366
300.371
300.376
300.381
300.385
300.39
300.394
300.399
300.001
300.003
300.006
300.008
300.01
300.013
300.016
300.019
300.022
300.025
300.028
300.031
300.034
300.038
300.042
300.045
300.049
300.053
300.057
300.062
300.066
300.07
300.075
300.08
300.084
300.089
300.094
300.099
300.104
300.109
300.115
300.12
300.125
300.131
300.136
300.142
300.147
300.153
300.158
300.164
300.17
300.175
300.181
300.187
300.192
300.198
300.204
300.209
300.215
300.22
300.226
300.232
300.237
300.243
300.248
300.254
300.259
300.264
300.27
300.275
300.28
300.286
300.291
300.296
300.301
300.306
300.311
300.316
300.32
300.325
300.33
300.335
300.339
300.344
300.348
300.352
300.357
300.361
300.365
300.369
300.374
300.001
300.003
300.005
300.008
300.01
300.013
300.015
300.018
300.021
300.024
300.027
300.03
300.034
300.037
300.041
300.044
300.048
300.052
300.056
300.06
300.064
300.068
300.073
300.077
300.082
300.087
300.091
300.096
300.101
300.106
300.111
300.116
300.121
300.127
300.132
300.137
300.143
300.148
300.153
300.159
300.164
300.17
300.175
300.181
300.186
300.191
300.197
300.202
300.208
300.213
300.219
300.224
300.229
300.234
300.24
300.245
300.25
300.255
300.26
300.266
300.271
300.276
300.28
300.285
300.29
300.295
300.3
300.304
300.309
300.313
300.318
300.322
300.327
300.331
300.335
300.34
300.344
300.348
300.352
300.356
300.36
302.978
303.107
303.184
303.255
303.318
303.369
303.404
303.443
303.482
303.519
303.55
303.584
303.618
303.651
303.684
303.717
303.747
303.774
303.803
303.832
303.86
303.888
303.917
303.945
303.973
304.001
304.027
304.054
304.08
304.106
304.132
304.157
304.182
304.207
304.231
304.255
304.279
304.303
304.326
304.349
304.372
304.393
304.417
304.442
304.465
304.488
304.509
304.532
304.555
304.577
304.599
304.618
304.64
304.661
304.683
304.705
304.727
304.748
304.77
304.79
304.807
304.825
304.845
304.864
304.884
304.903
304.922
304.942
304.96
304.978
304.997
305.014
305.031
305.048
305.065
305.082
305.098
305.114
305.129
305.146
305.165
305.181
305.196
305.211
305.224
305.237
305.252
305.268
305.282
305.295
305.307
305.32
305.334
305.346
305.359
305.373
305.386
305.397
305.409
305.42
305.43
305.441
305.45
305.46
305.47
305.481
305.491
305.498
305.506
305.513
305.521
305.529
305.538
305.546
305.552
305.557
305.563
305.57
305.575
305.58
305.583
305.587
305.591
305.594
305.597
305.598
305.6
305.6
305.601
305.6
305.599
305.596
305.593
305.589
305.584
305.577
305.57
305.561
305.551
305.54
305.527
305.513
305.497
305.48
305.46
305.439
305.415
305.388
305.359
305.324
305.283
305.241
305.199
305.151
305.097
305.037
304.97
304.857
304.754
304.622
304.449
302.878
302.991
303.078
303.153
303.218
303.273
303.318
303.361
303.403
303.441
303.477
303.513
303.548
303.583
303.617
303.649
303.681
303.71
303.74
303.77
303.799
303.828
303.857
303.886
303.914
303.942
303.97
303.997
304.024
304.05
304.076
304.102
304.127
304.152
304.177
304.201
304.226
304.25
304.273
304.297
304.32
304.343
304.366
304.39
304.414
304.437
304.459
304.482
304.505
304.527
304.549
304.57
304.591
304.613
304.635
304.656
304.678
304.7
304.721
304.741
304.76
304.779
304.798
304.818
304.837
304.857
304.876
304.895
304.914
304.932
304.951
304.968
304.986
305.003
305.02
305.037
305.053
305.07
305.085
305.102
305.12
305.137
305.152
305.167
305.181
305.194
305.209
305.224
305.239
305.252
305.264
305.277
305.291
305.304
305.317
305.331
305.343
305.354
305.366
305.378
305.388
305.399
305.408
305.418
305.429
305.439
305.449
305.457
305.465
305.473
305.481
305.489
305.497
305.505
305.511
305.517
305.523
305.529
305.535
305.539
305.543
305.547
305.551
305.554
305.556
305.558
305.559
305.56
305.56
305.56
305.558
305.556
305.553
305.549
305.543
305.537
305.53
305.521
305.511
305.5
305.487
305.473
305.457
305.44
305.42
305.398
305.374
305.348
305.318
305.283
305.242
305.2
305.157
305.108
305.053
304.99
304.919
304.81
304.701
304.563
304.373
302.796
302.895
302.98
303.055
303.121
303.179
303.23
303.276
303.32
303.362
303.4
303.438
303.475
303.511
303.545
303.579
303.612
303.643
303.674
303.704
303.734
303.764
303.794
303.823
303.852
303.88
303.908
303.936
303.963
303.99
304.016
304.043
304.069
304.094
304.119
304.144
304.169
304.193
304.217
304.241