/*--------------------------------*- C++ -*----------------------------------*\
| =========                 |                                                 |
| \\      /  F ield         | OpenFOAM: The Open Source CFD Toolbox           |
|  \\    /   O peration     | Version:  2106                                  |
|   \\  /    A nd           | Website:  www.openfoam.com                      |
|    \\/     M anipulation  |                                                 |
\*---------------------------------------------------------------------------*/
FoamFile
{
    version     2.0;
    format      ascii;
    arch        "LSB;label=32;scalar=64";
    class       volVectorField;
    location    "3.2";
    object      U;
}
// * * * * * * * * * * * * * * * * * * * * * * * * * * * * * * * * * * * * * //

dimensions      [0 1 -1 0 0 0 0];

internalField   nonuniform List<vector> 
12013
(
(0.100027 -7.49833e-06 0)
(0.100137 -1.38648e-05 0)
(0.100315 -1.97233e-05 0)
(0.100545 -2.50724e-05 0)
(0.100821 -3.00515e-05 0)
(0.101139 -3.47409e-05 0)
(0.101494 -3.91932e-05 0)
(0.101882 -4.34504e-05 0)
(0.102302 -4.75448e-05 0)
(0.102749 -5.15021e-05 0)
(0.103222 -5.53415e-05 0)
(0.103718 -5.90797e-05 0)
(0.104236 -6.27285e-05 0)
(0.104774 -6.62975e-05 0)
(0.10533 -6.97937e-05 0)
(0.105902 -7.32214e-05 0)
(0.10649 -7.65845e-05 0)
(0.107092 -7.98847e-05 0)
(0.107707 -8.31228e-05 0)
(0.108333 -8.62995e-05 0)
(0.10897 -8.94149e-05 0)
(0.109616 -9.24696e-05 0)
(0.110271 -9.54635e-05 0)
(0.110933 -9.8398e-05 0)
(0.111601 -0.000101275 0)
(0.112275 -0.000104095 0)
(0.112954 -0.000106862 0)
(0.113636 -0.000109577 0)
(0.114322 -0.000112244 0)
(0.115011 -0.000114864 0)
(0.115702 -0.000117439 0)
(0.116394 -0.000119971 0)
(0.117087 -0.000122459 0)
(0.11778 -0.000124903 0)
(0.118473 -0.000127298 0)
(0.119165 -0.000129642 0)
(0.119856 -0.000131928 0)
(0.120546 -0.000134147 0)
(0.121233 -0.000136289 0)
(0.121917 -0.000138341 0)
(0.122598 -0.000140288 0)
(0.123275 -0.000142113 0)
(0.123948 -0.000143796 0)
(0.124614 -0.000145312 0)
(0.125275 -0.000146636 0)
(0.125928 -0.000147738 0)
(0.126573 -0.000148584 0)
(0.127209 -0.000149137 0)
(0.127834 -0.000149354 0)
(0.128448 -0.000149187 0)
(0.12905 -0.000148581 0)
(0.129636 -0.000147474 0)
(0.130207 -0.000145794 0)
(0.13076 -0.000143458 0)
(0.131293 -0.000140372 0)
(0.131804 -0.000136422 0)
(0.13229 -0.000131478 0)
(0.132749 -0.000125383 0)
(0.133177 -0.000117951 0)
(0.133571 -0.000108956 0)
(0.133927 -9.81245e-05 0)
(0.13424 -8.51202e-05 0)
(0.134504 -6.95248e-05 0)
(0.134712 -5.08145e-05 0)
(0.134858 -2.83221e-05 0)
(0.13493 -1.18794e-06 0)
(0.134919 3.17138e-05 0)
(0.134808 7.19364e-05 0)
(0.134581 0.000121574 0)
(0.134214 0.000183544 0)
(0.133676 0.000262012 0)
(0.132927 0.00036309 0)
(0.131911 0.000495998 0)
(0.130551 0.000675072 0)
(0.128732 0.000923323 0)
(0.126289 0.00127888 0)
(0.122962 0.00180701 0)
(0.118332 0.00262596 0)
(0.111706 0.00398578 0)
(0.102169 0.00660709 0)
(0.091264 0.0138111 0)
(0.100025 -2.29018e-05 0)
(0.100135 -4.25157e-05 0)
(0.100312 -6.05088e-05 0)
(0.100541 -7.69261e-05 0)
(0.100817 -9.22077e-05 0)
(0.101134 -0.000106599 0)
(0.101488 -0.000120261 0)
(0.101876 -0.000133324 0)
(0.102295 -0.000145886 0)
(0.102741 -0.000158026 0)
(0.103214 -0.000169805 0)
(0.103709 -0.000181271 0)
(0.104226 -0.000192463 0)
(0.104763 -0.00020341 0)
(0.105318 -0.000214131 0)
(0.105889 -0.000224644 0)
(0.106476 -0.000234956 0)
(0.107077 -0.000245075 0)
(0.107691 -0.000255003 0)
(0.108316 -0.000264742 0)
(0.108952 -0.000274292 0)
(0.109597 -0.000283654 0)
(0.11025 -0.000292831 0)
(0.11091 -0.000301824 0)
(0.111577 -0.000310639 0)
(0.11225 -0.00031928 0)
(0.112927 -0.000327756 0)
(0.113608 -0.000336074 0)
(0.114292 -0.000344241 0)
(0.114979 -0.000352264 0)
(0.115668 -0.00036015 0)
(0.116358 -0.000367901 0)
(0.117049 -0.000375518 0)
(0.117741 -0.000382996 0)
(0.118432 -0.000390327 0)
(0.119122 -0.000397498 0)
(0.119811 -0.00040449 0)
(0.120498 -0.000411277 0)
(0.121183 -0.000417827 0)
(0.121865 -0.000424102 0)
(0.122543 -0.000430054 0)
(0.123218 -0.00043563 0)
(0.123887 -0.000440768 0)
(0.124551 -0.000445396 0)
(0.125209 -0.000449434 0)
(0.12586 -0.000452792 0)
(0.126502 -0.000455366 0)
(0.127135 -0.000457041 0)
(0.127758 -0.000457687 0)
(0.128369 -0.000457156 0)
(0.128967 -0.000455282 0)
(0.129551 -0.000451874 0)
(0.130119 -0.000446712 0)
(0.130669 -0.000439546 0)
(0.131199 -0.000430085 0)
(0.131707 -0.000417986 0)
(0.132191 -0.000402849 0)
(0.132647 -0.000384201 0)
(0.133074 -0.000361473 0)
(0.133466 -0.000333983 0)
(0.133821 -0.000300901 0)
(0.134133 -0.000261208 0)
(0.134397 -0.000213643 0)
(0.134607 -0.000156626 0)
(0.134755 -8.81529e-05 0)
(0.134833 -5.65183e-06 0)
(0.134829 9.42435e-05 0)
(0.13473 0.000216079 0)
(0.13452 0.000365993 0)
(0.134177 0.000552459 0)
(0.133676 0.00078744 0)
(0.132982 0.00108822 0)
(0.132049 0.00148042 0)
(0.130816 0.00200287 0)
(0.129203 0.00271601 0)
(0.127097 0.00371563 0)
(0.124352 0.00515534 0)
(0.120766 0.00728193 0)
(0.116098 0.0104917 0)
(0.110375 0.0153335 0)
(0.105554 0.0219605 0)
(0.100023 -3.89531e-05 0)
(0.100131 -7.29482e-05 0)
(0.100307 -0.000103937 0)
(0.100535 -0.000132203 0)
(0.100809 -0.000158507 0)
(0.101125 -0.000183272 0)
(0.101478 -0.000206779 0)
(0.101865 -0.000229251 0)
(0.102282 -0.000250859 0)
(0.102727 -0.000271739 0)
(0.103198 -0.000291995 0)
(0.103691 -0.000311712 0)
(0.104207 -0.000330954 0)
(0.104742 -0.000349771 0)
(0.105295 -0.0003682 0)
(0.105864 -0.000386266 0)
(0.106449 -0.000403987 0)
(0.107048 -0.000421373 0)
(0.107659 -0.000438429 0)
(0.108282 -0.000455157 0)
(0.108915 -0.000471558 0)
(0.109558 -0.000487634 0)
(0.110208 -0.000503388 0)
(0.110866 -0.000518825 0)
(0.11153 -0.000533951 0)
(0.1122 -0.000548778 0)
(0.112874 -0.000563316 0)
(0.113552 -0.000577579 0)
(0.114233 -0.000591581 0)
(0.114916 -0.000605333 0)
(0.115601 -0.000618845 0)
(0.116288 -0.000632122 0)
(0.116975 -0.000645164 0)
(0.117662 -0.000657966 0)
(0.118349 -0.000670513 0)
(0.119035 -0.000682781 0)
(0.11972 -0.000694737 0)
(0.120402 -0.000706338 0)
(0.121082 -0.000717529 0)
(0.12176 -0.000728243 0)
(0.122433 -0.0007384 0)
(0.123102 -0.000747908 0)
(0.123767 -0.000756661 0)
(0.124425 -0.000764536 0)
(0.125078 -0.000771396 0)
(0.125723 -0.000777084 0)
(0.126359 -0.000781425 0)
(0.126986 -0.000784222 0)
(0.127603 -0.000785252 0)
(0.128209 -0.000784264 0)
(0.128801 -0.000780973 0)
(0.129379 -0.000775054 0)
(0.129941 -0.000766136 0)
(0.130485 -0.000753791 0)
(0.131009 -0.000737524 0)
(0.131512 -0.00071676 0)
(0.13199 -0.00069082 0)
(0.132442 -0.000658906 0)
(0.132864 -0.000620064 0)
(0.133252 -0.00057315 0)
(0.133604 -0.000516777 0)
(0.133914 -0.000449252 0)
(0.134178 -0.000368482 0)
(0.13439 -0.000271863 0)
(0.134543 -0.000156114 0)
(0.134628 -1.70497e-05 0)
(0.134637 0.000150755 0)
(0.134557 0.000354479 0)
(0.134376 0.000603725 0)
(0.134076 0.000911516 0)
(0.133636 0.00129582 0)
(0.133032 0.00178187 0)
(0.132234 0.00240572 0)
(0.131205 0.00321959 0)
(0.129904 0.00430002 0)
(0.128288 0.00575925 0)
(0.126327 0.00775917 0)
(0.12402 0.0105222 0)
(0.121463 0.0143222 0)
(0.119028 0.0193487 0)
(0.117792 0.0250051 0)
(0.100021 -5.55262e-05 0)
(0.100128 -0.000105092 0)
(0.100301 -0.000149971 0)
(0.100527 -0.000190929 0)
(0.100799 -0.000229026 0)
(0.101113 -0.000264881 0)
(0.101464 -0.000298905 0)
(0.101848 -0.000331423 0)
(0.102263 -0.000362686 0)
(0.102706 -0.000392888 0)
(0.103174 -0.000422182 0)
(0.103665 -0.00045069 0)
(0.104178 -0.000478508 0)
(0.10471 -0.000505705 0)
(0.10526 -0.000532337 0)
(0.105827 -0.000558439 0)
(0.106409 -0.000584037 0)
(0.107004 -0.000609146 0)
(0.107612 -0.000633772 0)
(0.108231 -0.000657919 0)
(0.108861 -0.000681589 0)
(0.109499 -0.000704784 0)
(0.110146 -0.000727507 0)
(0.110799 -0.000749766 0)
(0.111459 -0.00077157 0)
(0.112124 -0.000792935 0)
(0.112793 -0.000813877 0)
(0.113466 -0.000834415 0)
(0.114142 -0.000854568 0)
(0.11482 -0.000874354 0)
(0.1155 -0.000893785 0)
(0.116181 -0.000912871 0)
(0.116862 -0.000931611 0)
(0.117544 -0.000949996 0)
(0.118224 -0.000968004 0)
(0.118904 -0.000985603 0)
(0.119582 -0.00100274 0)
(0.120257 -0.00101937 0)
(0.120931 -0.00103539 0)
(0.121601 -0.00105071 0)
(0.122267 -0.00106523 0)
(0.122928 -0.0010788 0)
(0.123585 -0.00109128 0)
(0.124236 -0.00110248 0)
(0.12488 -0.00111221 0)
(0.125516 -0.00112024 0)
(0.126144 -0.00112633 0)
(0.126763 -0.0011302 0)
(0.127371 -0.00113151 0)
(0.127968 -0.00112991 0)
(0.128551 -0.001125 0)
(0.12912 -0.00111632 0)
(0.129673 -0.00110333 0)
(0.130209 -0.00108543 0)
(0.130725 -0.00106192 0)
(0.131219 -0.00103198 0)
(0.13169 -0.000994669 0)
(0.132135 -0.000948858 0)
(0.13255 -0.000893218 0)
(0.132933 -0.000826159 0)
(0.133281 -0.000745761 0)
(0.133589 -0.000649695 0)
(0.133853 -0.000535104 0)
(0.134068 -0.000398454 0)
(0.134228 -0.000235334 0)
(0.134326 -4.01825e-05 0)
(0.134354 0.000194074 0)
(0.134303 0.000476632 0)
(0.134164 0.00081956 0)
(0.133925 0.00123882 0)
(0.133571 0.00175573 0)
(0.133091 0.00239913 0)
(0.132469 0.00320818 0)
(0.131694 0.00423635 0)
(0.130761 0.00555606 0)
(0.12968 0.00726335 0)
(0.128495 0.00947866 0)
(0.127302 0.0123343 0)
(0.126295 0.0159259 0)
(0.125803 0.0201654 0)
(0.126285 0.0243928 0)
(0.100019 -7.26351e-05 0)
(0.100124 -0.000138901 0)
(0.100294 -0.000198597 0)
(0.100517 -0.000253136 0)
(0.100786 -0.000303843 0)
(0.101097 -0.000351544 0)
(0.101445 -0.000396795 0)
(0.101827 -0.00044003 0)
(0.102239 -0.000481584 0)
(0.102678 -0.000521716 0)
(0.103143 -0.000560632 0)
(0.103631 -0.000598494 0)
(0.10414 -0.000635429 0)
(0.104668 -0.000671531 0)
(0.105215 -0.000706872 0)
(0.105777 -0.000741501 0)
(0.106355 -0.000775452 0)
(0.106945 -0.000808743 0)
(0.107549 -0.000841386 0)
(0.108163 -0.000873383 0)
(0.108788 -0.000904737 0)
(0.109421 -0.000935451 0)
(0.110062 -0.000965528 0)
(0.11071 -0.000994978 0)
(0.111364 -0.00102381 0)
(0.112022 -0.00105206 0)
(0.112685 -0.00107973 0)
(0.113352 -0.00110685 0)
(0.114021 -0.00113345 0)
(0.114692 -0.00115955 0)
(0.115365 -0.00118516 0)
(0.116038 -0.00121031 0)
(0.116711 -0.00123498 0)
(0.117384 -0.00125917 0)
(0.118057 -0.00128285 0)
(0.118728 -0.00130597 0)
(0.119397 -0.00132847 0)
(0.120064 -0.00135027 0)
(0.120727 -0.00137127 0)
(0.121388 -0.00139132 0)
(0.122044 -0.00141029 0)
(0.122696 -0.001428 0)
(0.123342 -0.00144425 0)
(0.123982 -0.0014588 0)
(0.124615 -0.00147139 0)
(0.125241 -0.00148173 0)
(0.125858 -0.00148949 0)
(0.126465 -0.00149429 0)
(0.127062 -0.00149573 0)
(0.127647 -0.00149333 0)
(0.128219 -0.00148656 0)
(0.128777 -0.00147481 0)
(0.129319 -0.00145742 0)
(0.129843 -0.00143358 0)
(0.130349 -0.00140241 0)
(0.130833 -0.00136285 0)
(0.131294 -0.00131369 0)
(0.13173 -0.0012535 0)
(0.132138 -0.00118061 0)
(0.132515 -0.00109301 0)
(0.132858 -0.00098831 0)
(0.133164 -0.000863626 0)
(0.13343 -0.000715454 0)
(0.13365 -0.000539508 0)
(0.13382 -0.0003305 0)
(0.133936 -8.18722e-05 0)
(0.133991 0.000214531 0)
(0.133979 0.000569049 0)
(0.133895 0.000994924 0)
(0.133732 0.0015091 0)
(0.133485 0.00213335 0)
(0.13315 0.00289568 0)
(0.132727 0.00383201 0)
(0.132224 0.0049878 0)
(0.131661 0.00641921 0)
(0.131076 0.00819194 0)
(0.13054 0.0103745 0)
(0.130167 0.0130181 0)
(0.130126 0.0161112 0)
(0.130628 0.0194868 0)
(0.131843 0.0226743 0)
(0.100017 -9.02939e-05 0)
(0.10012 -0.000174331 0)
(0.100287 -0.000249795 0)
(0.100506 -0.000318833 0)
(0.100772 -0.000383006 0)
(0.101079 -0.000443349 0)
(0.101423 -0.000500572 0)
(0.101801 -0.000555226 0)
(0.102209 -0.000607736 0)
(0.102644 -0.000658433 0)
(0.103105 -0.000707576 0)
(0.103588 -0.000755372 0)
(0.104093 -0.000801981 0)
(0.104616 -0.000847525 0)
(0.105158 -0.000892093 0)
(0.105715 -0.000935748 0)
(0.106287 -0.000978531 0)
(0.106872 -0.00102047 0)
(0.10747 -0.00106157 0)
(0.108078 -0.00110185 0)
(0.108696 -0.00114129 0)
(0.109322 -0.00117992 0)
(0.109957 -0.00121772 0)
(0.110597 -0.00125472 0)
(0.111244 -0.00129093 0)
(0.111895 -0.00132637 0)
(0.11255 -0.00136106 0)
(0.113208 -0.00139505 0)
(0.113869 -0.00142836 0)
(0.114531 -0.00146103 0)
(0.115194 -0.00149306 0)
(0.115858 -0.00152448 0)
(0.116522 -0.00155528 0)
(0.117185 -0.00158546 0)
(0.117847 -0.00161497 0)
(0.118507 -0.00164375 0)
(0.119165 -0.00167174 0)
(0.119821 -0.00169882 0)
(0.120473 -0.00172487 0)
(0.121122 -0.00174972 0)
(0.121766 -0.00177319 0)
(0.122405 -0.00179504 0)
(0.123038 -0.00181504 0)
(0.123665 -0.0018329 0)
(0.124286 -0.00184827 0)
(0.124898 -0.00186081 0)
(0.125501 -0.0018701 0)
(0.126095 -0.00187568 0)
(0.126678 -0.00187704 0)
(0.127249 -0.00187359 0)
(0.127808 -0.00186468 0)
(0.128352 -0.00184958 0)
(0.12888 -0.00182745 0)
(0.129391 -0.00179733 0)
(0.129884 -0.00175815 0)
(0.130356 -0.00170863 0)
(0.130806 -0.00164732 0)
(0.131232 -0.00157253 0)
(0.131631 -0.00148227 0)
(0.132002 -0.0013742 0)
(0.132341 -0.00124554 0)
(0.132647 -0.00109298 0)
(0.132915 -0.000912552 0)
(0.133143 -0.000699457 0)
(0.133328 -0.000447882 0)
(0.133467 -0.000150757 0)
(0.133556 0.000200487 0)
(0.133591 0.00061635 0)
(0.133572 0.00110987 0)
(0.133497 0.00169711 0)
(0.133367 0.00239773 0)
(0.133187 0.0032356 0)
(0.132967 0.00423925 0)
(0.132725 0.00544173 0)
(0.132492 0.00687933 0)
(0.132317 0.00858792 0)
(0.132267 0.0105946 0)
(0.132438 0.0129013 0)
(0.132945 0.015456 0)
(0.133902 0.0181098 0)
(0.135359 0.0205728 0)
(0.100015 -0.000108514 0)
(0.100115 -0.000211348 0)
(0.100279 -0.000303543 0)
(0.100494 -0.000388013 0)
(0.100756 -0.000466539 0)
(0.101058 -0.000540352 0)
(0.101398 -0.000610325 0)
(0.101771 -0.00067713 0)
(0.102174 -0.000741288 0)
(0.102605 -0.000803206 0)
(0.10306 -0.000863203 0)
(0.103538 -0.000921531 0)
(0.104037 -0.000978386 0)
(0.104555 -0.00103392 0)
(0.10509 -0.00108824 0)
(0.105641 -0.00114142 0)
(0.106206 -0.00119352 0)
(0.106784 -0.00124456 0)
(0.107374 -0.00129457 0)
(0.107975 -0.00134354 0)
(0.108585 -0.00139148 0)
(0.109204 -0.0014384 0)
(0.10983 -0.00148429 0)
(0.110462 -0.00152917 0)
(0.111099 -0.00157306 0)
(0.111741 -0.001616 0)
(0.112387 -0.001658 0)
(0.113035 -0.00169911 0)
(0.113685 -0.00173936 0)
(0.114337 -0.0017788 0)
(0.114989 -0.00181744 0)
(0.115642 -0.00185531 0)
(0.116294 -0.00189239 0)
(0.116945 -0.00192868 0)
(0.117595 -0.00196413 0)
(0.118242 -0.00199867 0)
(0.118887 -0.00203221 0)
(0.11953 -0.00206462 0)
(0.120168 -0.00209574 0)
(0.120802 -0.00212538 0)
(0.121432 -0.00215331 0)
(0.122057 -0.00217926 0)
(0.122675 -0.00220294 0)
(0.123287 -0.00222399 0)
(0.123892 -0.00224202 0)
(0.124488 -0.00225659 0)
(0.125076 -0.00226722 0)
(0.125653 -0.00227336 0)
(0.126221 -0.00227439 0)
(0.126776 -0.00226962 0)
(0.127318 -0.0022583 0)
(0.127846 -0.00223955 0)
(0.128359 -0.0022124 0)
(0.128856 -0.00217575 0)
(0.129334 -0.00212832 0)
(0.129793 -0.00206868 0)
(0.130231 -0.00199518 0)
(0.130646 -0.00190589 0)
(0.131037 -0.00179859 0)
(0.131401 -0.00167069 0)
(0.131737 -0.00151916 0)
(0.132043 -0.00134043 0)
(0.132317 -0.00113027 0)
(0.132556 -0.00088369 0)
(0.132759 -0.000594743 0)
(0.132926 -0.000256375 0)
(0.133053 0.000139736 0)
(0.133143 0.000603314 0)
(0.133194 0.00114601 0)
(0.133212 0.00178154 0)
(0.133201 0.00252578 0)
(0.133171 0.0033967 0)
(0.133139 0.00441395 0)
(0.133126 0.00559782 0)
(0.133164 0.00696708 0)
(0.133297 0.00853509 0)
(0.133581 0.0103032 0)
(0.134081 0.0122508 0)
(0.134866 0.014321 0)
(0.13599 0.0164048 0)
(0.137456 0.0183345 0)
(0.100013 -0.000127313 0)
(0.100111 -0.000249925 0)
(0.100271 -0.000359818 0)
(0.100481 -0.000460662 0)
(0.100738 -0.000554446 0)
(0.101036 -0.000642584 0)
(0.10137 -0.000726109 0)
(0.101738 -0.000805823 0)
(0.102135 -0.000882346 0)
(0.102559 -0.000956162 0)
(0.103008 -0.00102765 0)
(0.10348 -0.00109713 0)
(0.103972 -0.00116481 0)
(0.104483 -0.00123089 0)
(0.105011 -0.00129549 0)
(0.105554 -0.0013587 0)
(0.106112 -0.0014206 0)
(0.106682 -0.00148121 0)
(0.107264 -0.00154055 0)
(0.107856 -0.00159863 0)
(0.108457 -0.00165545 0)
(0.109066 -0.00171102 0)
(0.109682 -0.00176533 0)
(0.110304 -0.00181842 0)
(0.110931 -0.00187029 0)
(0.111562 -0.00192098 0)
(0.112196 -0.00197052 0)
(0.112833 -0.00201897 0)
(0.113471 -0.00206637 0)
(0.11411 -0.00211275 0)
(0.11475 -0.00215814 0)
(0.115389 -0.00220257 0)
(0.116028 -0.00224604 0)
(0.116665 -0.00228851 0)
(0.117301 -0.00232995 0)
(0.117934 -0.00237027 0)
(0.118564 -0.00240937 0)
(0.11919 -0.00244708 0)
(0.119813 -0.00248323 0)
(0.120431 -0.00251759 0)
(0.121044 -0.00254989 0)
(0.121652 -0.00257982 0)
(0.122253 -0.00260702 0)
(0.122848 -0.00263109 0)
(0.123435 -0.00265158 0)
(0.124014 -0.00266797 0)
(0.124583 -0.00267971 0)
(0.125143 -0.00268614 0)
(0.125692 -0.00268658 0)
(0.12623 -0.00268024 0)
(0.126754 -0.00266625 0)
(0.127265 -0.00264361 0)
(0.127761 -0.00261124 0)
(0.128242 -0.0025679 0)
(0.128705 -0.00251218 0)
(0.12915 -0.0024425 0)
(0.129575 -0.00235706 0)
(0.129979 -0.00225378 0)
(0.130361 -0.0021303 0)
(0.130719 -0.00198389 0)
(0.131053 -0.00181141 0)
(0.13136 -0.0016092 0)
(0.131641 -0.00137307 0)
(0.131894 -0.0010981 0)
(0.132119 -0.000778654 0)
(0.132315 -0.000408172 0)
(0.132485 2.08505e-05 0)
(0.13263 0.000516686 0)
(0.132754 0.00108874 0)
(0.132862 0.00174757 0)
(0.132964 0.00250457 0)
(0.13307 0.00337152 0)
(0.133198 0.00435982 0)
(0.13337 0.00547917 0)
(0.133613 0.00673562 0)
(0.133962 0.00812863 0)
(0.134455 0.00964699 0)
(0.135134 0.0112638 0)
(0.136034 0.0129312 0)
(0.137178 0.0145762 0)
(0.138555 0.0161041 0)
(0.100011 -0.000146715 0)
(0.100107 -0.000290044 0)
(0.100262 -0.000418601 0)
(0.100468 -0.000536756 0)
(0.100719 -0.000646714 0)
(0.101011 -0.000750047 0)
(0.101339 -0.000847948 0)
(0.101701 -0.000941347 0)
(0.102091 -0.00103097 0)
(0.102509 -0.00111737 0)
(0.102951 -0.00120102 0)
(0.103415 -0.00128226 0)
(0.103899 -0.00136136 0)
(0.104402 -0.00143854 0)
(0.104921 -0.00151395 0)
(0.105456 -0.0015877 0)
(0.106004 -0.00165987 0)
(0.106565 -0.00173049 0)
(0.107137 -0.00179959 0)
(0.107719 -0.00186717 0)
(0.10831 -0.00193325 0)
(0.108908 -0.00199781 0)
(0.109513 -0.00206086 0)
(0.110123 -0.00212243 0)
(0.110738 -0.00218254 0)
(0.111356 -0.00224122 0)
(0.111978 -0.00229851 0)
(0.112601 -0.00235448 0)
(0.113226 -0.00240916 0)
(0.113851 -0.0024626 0)
(0.114476 -0.00251484 0)
(0.115101 -0.0025659 0)
(0.115724 -0.00261578 0)
(0.116346 -0.00266446 0)
(0.116965 -0.00271188 0)
(0.117582 -0.00275794 0)
(0.118195 -0.00280252 0)
(0.118804 -0.00284545 0)
(0.119409 -0.00288651 0)
(0.120009 -0.00292544 0)
(0.120604 -0.00296195 0)
(0.121193 -0.00299566 0)
(0.121775 -0.00302618 0)
(0.12235 -0.00305305 0)
(0.122918 -0.00307575 0)
(0.123477 -0.0030937 0)
(0.124027 -0.00310626 0)
(0.124567 -0.00311273 0)
(0.125096 -0.00311231 0)
(0.125614 -0.00310415 0)
(0.126119 -0.00308726 0)
(0.126612 -0.00306058 0)
(0.12709 -0.0030229 0)
(0.127553 -0.00297289 0)
(0.128 -0.00290906 0)
(0.12843 -0.00282972 0)
(0.128842 -0.00273297 0)
(0.129235 -0.00261669 0)
(0.129608 -0.00247846 0)
(0.129961 -0.00231554 0)
(0.130293 -0.00212483 0)
(0.130604 -0.00190283 0)
(0.130893 -0.00164556 0)
(0.131161 -0.00134853 0)
(0.131409 -0.00100671 0)
(0.131637 -0.000614453 0)
(0.131849 -0.000165553 0)
(0.132049 0.00034661 0)
(0.132241 0.00092875 0)
(0.132432 0.00158805 0)
(0.132632 0.00233156 0)
(0.132852 0.00316566 0)
(0.133109 0.00409521 0)
(0.13342 0.00512249 0)
(0.133806 0.00624578 0)
(0.134293 0.00745757 0)
(0.134904 0.00874259 0)
(0.135662 0.0100758 0)
(0.136586 0.0114212 0)
(0.137681 0.012732 0)
(0.138934 0.0139551 0)
(0.100009 -0.000166741 0)
(0.100103 -0.000331689 0)
(0.100254 -0.000479866 0)
(0.100454 -0.000616263 0)
(0.1007 -0.000743309 0)
(0.100985 -0.000862716 0)
(0.101307 -0.000975826 0)
(0.10166 -0.0010837 0)
(0.102044 -0.00118716 0)
(0.102453 -0.00128686 0)
(0.102887 -0.00138332 0)
(0.103343 -0.00147695 0)
(0.103818 -0.00156806 0)
(0.104312 -0.00165691 0)
(0.104821 -0.00174366 0)
(0.105346 -0.00182844 0)
(0.105884 -0.00191134 0)
(0.106434 -0.00199241 0)
(0.106995 -0.00207168 0)
(0.107565 -0.00214914 0)
(0.108144 -0.0022248 0)
(0.10873 -0.00229867 0)
(0.109322 -0.00237075 0)
(0.109919 -0.00244106 0)
(0.11052 -0.00250962 0)
(0.111125 -0.00257648 0)
(0.111732 -0.00264169 0)
(0.112341 -0.00270529 0)
(0.11295 -0.00276736 0)
(0.11356 -0.00282793 0)
(0.114169 -0.00288705 0)
(0.114777 -0.00294475 0)
(0.115383 -0.00300103 0)
(0.115987 -0.00305585 0)
(0.116588 -0.00310916 0)
(0.117186 -0.00316085 0)
(0.117781 -0.00321078 0)
(0.118371 -0.00325876 0)
(0.118956 -0.00330454 0)
(0.119537 -0.00334784 0)
(0.120111 -0.00338831 0)
(0.120679 -0.00342556 0)
(0.121241 -0.00345912 0)
(0.121795 -0.0034885 0)
(0.122341 -0.00351311 0)
(0.122879 -0.00353232 0)
(0.123407 -0.00354542 0)
(0.123926 -0.00355165 0)
(0.124434 -0.00355013 0)
(0.124931 -0.00353994 0)
(0.125416 -0.00352002 0)
(0.125889 -0.00348924 0)
(0.126348 -0.00344633 0)
(0.126793 -0.00338989 0)
(0.127223 -0.00331838 0)
(0.127638 -0.00323008 0)
(0.128037 -0.00312308 0)
(0.128419 -0.00299526 0)
(0.128784 -0.00284428 0)
(0.129133 -0.00266752 0)
(0.129464 -0.00246209 0)
(0.129778 -0.00222478 0)
(0.130077 -0.00195207 0)
(0.13036 -0.0016401 0)
(0.13063 -0.00128471 0)
(0.130889 -0.000881434 0)
(0.131141 -0.000425564 0)
(0.13139 8.77742e-05 0)
(0.131642 0.000662804 0)
(0.131904 0.00130352 0)
(0.132184 0.00201336 0)
(0.132493 0.00279457 0)
(0.132845 0.00364753 0)
(0.133252 0.00457007 0)
(0.13373 0.0055566 0)
(0.134294 0.00659727 0)
(0.134959 0.0076772 0)
(0.135737 0.00877608 0)
(0.136634 0.00986839 0)
(0.137651 0.0109248 0)
(0.138774 0.0119151 0)
(0.100007 -0.000187411 0)
(0.100099 -0.00037484 0)
(0.100245 -0.000543581 0)
(0.10044 -0.000699137 0)
(0.100679 -0.000844176 0)
(0.100957 -0.000980531 0)
(0.101271 -0.00110968 0)
(0.101617 -0.00123282 0)
(0.101992 -0.00135087 0)
(0.102393 -0.00146458 0)
(0.102817 -0.00157452 0)
(0.103263 -0.00168116 0)
(0.103729 -0.00178488 0)
(0.104212 -0.00188593 0)
(0.104711 -0.00198454 0)
(0.105225 -0.00208083 0)
(0.105751 -0.00217492 0)
(0.106289 -0.00226685 0)
(0.106837 -0.00235666 0)
(0.107395 -0.00244435 0)
(0.10796 -0.00252992 0)
(0.108532 -0.00261338 0)
(0.10911 -0.00269473 0)
(0.109692 -0.00277399 0)
(0.110279 -0.00285119 0)
(0.110868 -0.00292638 0)
(0.111459 -0.0029996 0)
(0.112051 -0.00307092 0)
(0.112643 -0.00314041 0)
(0.113236 -0.00320812 0)
(0.113827 -0.00327409 0)
(0.114416 -0.00333837 0)
(0.115004 -0.00340094 0)
(0.115589 -0.00346179 0)
(0.116171 -0.00352084 0)
(0.116749 -0.00357797 0)
(0.117322 -0.00363304 0)
(0.117892 -0.00368583 0)
(0.118456 -0.00373607 0)
(0.119014 -0.00378345 0)
(0.119567 -0.00382758 0)
(0.120113 -0.00386804 0)
(0.120652 -0.00390432 0)
(0.121183 -0.00393587 0)
(0.121707 -0.00396207 0)
(0.122222 -0.00398222 0)
(0.122727 -0.00399558 0)
(0.123224 -0.0040013 0)
(0.123709 -0.00399848 0)
(0.124184 -0.00398612 0)
(0.124648 -0.00396315 0)
(0.1251 -0.00392836 0)
(0.125539 -0.00388048 0)
(0.125966 -0.00381808 0)
(0.126379 -0.00373962 0)
(0.126778 -0.00364341 0)
(0.127164 -0.00352761 0)
(0.127535 -0.00339021 0)
(0.127893 -0.00322901 0)
(0.128237 -0.00304165 0)
(0.128567 -0.00282556 0)
(0.128885 -0.00257799 0)
(0.129193 -0.00229602 0)
(0.12949 -0.00197657 0)
(0.129781 -0.00161646 0)
(0.130067 -0.00121249 0)
(0.130354 -0.000761493 0)
(0.130644 -0.000260417 0)
(0.130945 0.00029344 0)
(0.131262 0.000901197 0)
(0.131603 0.00156356 0)
(0.131976 0.00227999 0)
(0.132391 0.00304828 0)
(0.132858 0.00386408 0)
(0.133386 0.00472053 0)
(0.133985 0.00560795 0)
(0.134662 0.00651377 0)
(0.135423 0.00742263 0)
(0.136269 0.00831705 0)
(0.137197 0.00917861 0)
(0.138197 0.00999006 0)
(0.100004 -0.000208734 0)
(0.100094 -0.000419471 0)
(0.100237 -0.000609693 0)
(0.100425 -0.000785309 0)
(0.100657 -0.000949227 0)
(0.100928 -0.00110339 0)
(0.101234 -0.00124941 0)
(0.101571 -0.0013886 0)
(0.101937 -0.00152198 0)
(0.102328 -0.00165038 0)
(0.102742 -0.00177446 0)
(0.103177 -0.00189474 0)
(0.103632 -0.00201163 0)
(0.104103 -0.00212544 0)
(0.10459 -0.0022364 0)
(0.105091 -0.00234467 0)
(0.105605 -0.00245037 0)
(0.106129 -0.00255355 0)
(0.106664 -0.00265425 0)
(0.107207 -0.00275248 0)
(0.107757 -0.00284824 0)
(0.108314 -0.00294153 0)
(0.108876 -0.00303236 0)
(0.109443 -0.00312074 0)
(0.110012 -0.0032067 0)
(0.110584 -0.0032903 0)
(0.111157 -0.0033716 0)
(0.111731 -0.00345065 0)
(0.112305 -0.00352754 0)
(0.112878 -0.00360232 0)
(0.11345 -0.00367505 0)
(0.11402 -0.00374577 0)
(0.114587 -0.00381448 0)
(0.115151 -0.00388114 0)
(0.115712 -0.0039457 0)
(0.116268 -0.00400801 0)
(0.11682 -0.00406793 0)
(0.117366 -0.00412521 0)
(0.117907 -0.00417958 0)
(0.118443 -0.00423068 0)
(0.118972 -0.00427811 0)
(0.119494 -0.00432141 0)
(0.120009 -0.00436004 0)
(0.120516 -0.0043934 0)
(0.121016 -0.00442083 0)
(0.121507 -0.00444161 0)
(0.121988 -0.00445493 0)
(0.122461 -0.00445993 0)
(0.122923 -0.00445566 0)
(0.123376 -0.00444111 0)
(0.123817 -0.00441517 0)
(0.124248 -0.00437665 0)
(0.124667 -0.00432425 0)
(0.125074 -0.00425661 0)
(0.12547 -0.00417222 0)
(0.125854 -0.0040695 0)
(0.126226 -0.00394672 0)
(0.126587 -0.00380207 0)
(0.126936 -0.00363361 0)
(0.127275 -0.00343929 0)
(0.127605 -0.00321698 0)
(0.127926 -0.00296445 0)
(0.12824 -0.00267947 0)
(0.12855 -0.00235978 0)
(0.128857 -0.00200321 0)
(0.129166 -0.00160773 0)
(0.129479 -0.00117156 0)
(0.129802 -0.000693235 0)
(0.130139 -0.000171678 0)
(0.130495 0.000393399 0)
(0.130877 0.00100027 0)
(0.131291 0.00164678 0)
(0.131743 0.00232947 0)
(0.132239 0.00304334 0)
(0.132786 0.00378174 0)
(0.133389 0.00453632 0)
(0.134052 0.00529717 0)
(0.134775 0.00605318 0)
(0.135558 0.00679257 0)
(0.136397 0.00750374 0)
(0.137286 0.00817668 0)
(0.100001 -0.000230709 0)
(0.10009 -0.000465541 0)
(0.100228 -0.00067813 0)
(0.10041 -0.000874677 0)
(0.100635 -0.00105833 0)
(0.100898 -0.00123115 0)
(0.101194 -0.00139484 0)
(0.101522 -0.00155084 0)
(0.101877 -0.00170028 0)
(0.102258 -0.00184406 0)
(0.102661 -0.00198292 0)
(0.103084 -0.00211743 0)
(0.103527 -0.00224804 0)
(0.103985 -0.00237511 0)
(0.104459 -0.0024989 0)
(0.104946 -0.00261958 0)
(0.105445 -0.00273728 0)
(0.105955 -0.00285206 0)
(0.106474 -0.00296397 0)
(0.107002 -0.00307302 0)
(0.107536 -0.0031792 0)
(0.108076 -0.00328251 0)
(0.10862 -0.00338297 0)
(0.109169 -0.00348058 0)
(0.10972 -0.00357538 0)
(0.110273 -0.00366743 0)
(0.110827 -0.00375678 0)
(0.111382 -0.00384351 0)
(0.111935 -0.0039277 0)
(0.112488 -0.00400943 0)
(0.113039 -0.00408875 0)
(0.113587 -0.0041657 0)
(0.114132 -0.00424029 0)
(0.114673 -0.0043125 0)
(0.115211 -0.00438225 0)
(0.115744 -0.00444941 0)
(0.116272 -0.0045138 0)
(0.116794 -0.00457519 0)
(0.117311 -0.00463328 0)
(0.117822 -0.00468769 0)
(0.118326 -0.004738 0)
(0.118823 -0.00478372 0)
(0.119313 -0.00482428 0)
(0.119795 -0.00485906 0)
(0.120269 -0.00488737 0)
(0.120734 -0.00490846 0)
(0.121191 -0.0049215 0)
(0.121639 -0.00492562 0)
(0.122077 -0.00491985 0)
(0.122506 -0.00490317 0)
(0.122925 -0.0048745 0)
(0.123333 -0.00483266 0)
(0.123732 -0.00477643 0)
(0.12412 -0.0047045 0)
(0.124498 -0.00461548 0)
(0.124866 -0.00450791 0)
(0.125225 -0.00438029 0)
(0.125574 -0.00423103 0)
(0.125915 -0.0040585 0)
(0.126248 -0.00386105 0)
(0.126575 -0.00363702 0)
(0.126897 -0.00338475 0)
(0.127216 -0.00310267 0)
(0.127534 -0.00278934 0)
(0.127854 -0.00244346 0)
(0.128178 -0.00206404 0)
(0.12851 -0.0016504 0)
(0.128854 -0.0012023 0)
(0.129214 -0.00071994 0)
(0.129594 -0.000203982 0)
(0.129999 0.000344101 0)
(0.130433 0.00092052 0)
(0.1309 0.00152141 0)
(0.131403 0.00214197 0)
(0.131948 0.00277642 0)
(0.132534 0.00341806 0)
(0.133165 0.00405945 0)
(0.133839 0.00469273 0)
(0.134556 0.00530998 0)
(0.135311 0.00590388 0)
(0.136098 0.00646855 0)
(0.0999985 -0.000253321 0)
(0.100085 -0.00051299 0)
(0.100218 -0.000748784 0)
(0.100394 -0.000967097 0)
(0.100611 -0.00117131 0)
(0.100865 -0.00136358 0)
(0.101153 -0.00154573 0)
(0.10147 -0.00171927 0)
(0.101814 -0.00188546 0)
(0.102183 -0.00204528 0)
(0.102574 -0.00219952 0)
(0.102984 -0.00234882 0)
(0.103413 -0.00249369 0)
(0.103858 -0.0026345 0)
(0.104317 -0.00277154 0)
(0.104789 -0.00290502 0)
(0.105272 -0.00303506 0)
(0.105766 -0.00316176 0)
(0.106268 -0.00328514 0)
(0.106778 -0.00340522 0)
(0.107294 -0.003522 0)
(0.107816 -0.00363547 0)
(0.108342 -0.00374564 0)
(0.108871 -0.00385253 0)
(0.109402 -0.00395618 0)
(0.109935 -0.00405663 0)
(0.110468 -0.00415395 0)
(0.111001 -0.00424824 0)
(0.111533 -0.00433957 0)
(0.112063 -0.00442802 0)
(0.112591 -0.00451368 0)
(0.113116 -0.00459657 0)
(0.113637 -0.00467672 0)
(0.114154 -0.00475411 0)
(0.114667 -0.00482866 0)
(0.115175 -0.00490025 0)
(0.115678 -0.00496868 0)
(0.116175 -0.00503372 0)
(0.116666 -0.00509506 0)
(0.11715 -0.0051523 0)
(0.117628 -0.00520502 0)
(0.118099 -0.0052527 0)
(0.118562 -0.00529476 0)
(0.119018 -0.00533056 0)
(0.119465 -0.0053594 0)
(0.119905 -0.00538051 0)
(0.120336 -0.00539308 0)
(0.120758 -0.00539621 0)
(0.121172 -0.00538897 0)
(0.121576 -0.00537036 0)
(0.121971 -0.00533934 0)
(0.122358 -0.0052948 0)
(0.122735 -0.00523559 0)
(0.123104 -0.00516052 0)
(0.123464 -0.00506836 0)
(0.123816 -0.00495784 0)
(0.12416 -0.00482768 0)
(0.124497 -0.00467658 0)
(0.124828 -0.00450326 0)
(0.125155 -0.00430646 0)
(0.125477 -0.004085 0)
(0.125798 -0.00383778 0)
(0.126118 -0.00356384 0)
(0.12644 -0.00326241 0)
(0.126766 -0.00293297 0)
(0.127098 -0.00257527 0)
(0.12744 -0.00218948 0)
(0.127795 -0.00177614 0)
(0.128165 -0.00133631 0)
(0.128554 -0.000871446 0)
(0.128965 -0.00038343 0)
(0.129403 0.000125557 0)
(0.129868 0.00065125 0)
(0.130362 0.00118888 0)
(0.130887 0.00173366 0)
(0.131445 0.00228045 0)
(0.132034 0.00282385 0)
(0.132655 0.00335836 0)
(0.133304 0.0038787 0)
(0.13398 0.00438019 0)
(0.134677 0.00485935 0)
(0.0999954 -0.000276538 0)
(0.10008 -0.000561732 0)
(0.100209 -0.000821508 0)
(0.100378 -0.00106237 0)
(0.100587 -0.00128791 0)
(0.100831 -0.00150039 0)
(0.101109 -0.00170171 0)
(0.101415 -0.0018935 0)
(0.101747 -0.00207708 0)
(0.102103 -0.00225354 0)
(0.10248 -0.00242373 0)
(0.102877 -0.00258835 0)
(0.103291 -0.00274793 0)
(0.10372 -0.00290291 0)
(0.104163 -0.0030536 0)
(0.104618 -0.00320021 0)
(0.105085 -0.0033429 0)
(0.10556 -0.00348175 0)
(0.106044 -0.0036168 0)
(0.106535 -0.00374807 0)
(0.107032 -0.00387556 0)
(0.107534 -0.00399925 0)
(0.108039 -0.00411916 0)
(0.108547 -0.0042353 0)
(0.109057 -0.00434771 0)
(0.109567 -0.00445645 0)
(0.110078 -0.00456159 0)
(0.110588 -0.00466321 0)
(0.111096 -0.00476143 0)
(0.111602 -0.00485632 0)
(0.112106 -0.00494797 0)