/*--------------------------------*- C++ -*----------------------------------*\
| =========                 |                                                 |
| \\      /  F ield         | OpenFOAM: The Open Source CFD Toolbox           |
|  \\    /   O peration     | Version:  2106                                  |
|   \\  /    A nd           | Website:  www.openfoam.com                      |
|    \\/     M anipulation  |                                                 |
\*---------------------------------------------------------------------------*/
FoamFile
{
    version     2.0;
    format      ascii;
    arch        "LSB;label=32;scalar=64";
    class       surfaceScalarField;
    location    "0.6";
    object      phi;
}
// * * * * * * * * * * * * * * * * * * * * * * * * * * * * * * * * * * * * * //

dimensions      [1 0 -1 0 0 0 0];

oriented        oriented;

internalField   nonuniform List<scalar> 
23692
(
9.30663e-05
1.32646e-08
9.30255e-05
4.08053e-08
9.29443e-05
8.11473e-08
9.28201e-05
1.24249e-07
9.26616e-05
1.58523e-07
9.24842e-05
1.77351e-07
9.2303e-05
1.81232e-07
9.21276e-05
1.75373e-07
9.19618e-05
1.65833e-07
9.18048e-05
1.56972e-07
9.1654e-05
1.50793e-07
9.15065e-05
1.47514e-07
9.136e-05
1.46467e-07
9.12133e-05
1.46784e-07
9.10655e-05
1.47758e-07
9.09166e-05
1.48932e-07
9.07665e-05
1.50081e-07
9.06154e-05
1.5112e-07
9.04633e-05
1.52048e-07
9.03104e-05
1.52903e-07
9.01567e-05
1.53727e-07
9.00021e-05
1.54565e-07
8.98467e-05
1.55452e-07
8.96903e-05
1.5642e-07
8.95328e-05
1.57491e-07
8.93741e-05
1.58682e-07
8.92141e-05
1.60008e-07
8.90526e-05
1.61474e-07
8.88895e-05
1.6309e-07
8.87247e-05
1.64856e-07
8.85579e-05
1.66772e-07
8.8389e-05
1.68836e-07
8.8218e-05
1.71047e-07
8.80446e-05
1.734e-07
8.78687e-05
1.75893e-07
8.76902e-05
1.78525e-07
8.75089e-05
1.81295e-07
8.73247e-05
1.84206e-07
8.71374e-05
1.8726e-07
8.69469e-05
1.90465e-07
8.67531e-05
1.93832e-07
8.65557e-05
1.97375e-07
8.63546e-05
2.01111e-07
8.61496e-05
2.05061e-07
8.59403e-05
2.09253e-07
8.57266e-05
2.13717e-07
8.55081e-05
2.1849e-07
8.52845e-05
2.23615e-07
8.50553e-05
2.29144e-07
8.48202e-05
2.35135e-07
8.45785e-05
2.41655e-07
8.43297e-05
2.48786e-07
8.40731e-05
2.56621e-07
8.38078e-05
2.65272e-07
8.3533e-05
2.74868e-07
8.32474e-05
2.85565e-07
8.29499e-05
2.97546e-07
8.26388e-05
3.11035e-07
8.23125e-05
3.26299e-07
8.19689e-05
3.43665e-07
8.16053e-05
3.63535e-07
8.12189e-05
3.86407e-07
8.0806e-05
4.12906e-07
8.03622e-05
4.43819e-07
7.9882e-05
4.80158e-07
7.93588e-05
5.23231e-07
7.8784e-05
5.74758e-07
7.8147e-05
6.37033e-07
7.74338e-05
7.13155e-07
7.66264e-05
8.07392e-07
7.57007e-05
9.25716e-07
7.46241e-05
1.07663e-06
7.33516e-05
1.27246e-06
7.18202e-05
1.5314e-06
6.99395e-05
1.88069e-06
6.75778e-05
2.36178e-06
6.45398e-05
3.03798e-06
6.05326e-05
4.00716e-06
5.51011e-05
5.43149e-06
4.74906e-05
7.61048e-06
1.13386e-05
3.61521e-05
9.95858e-05
2.68358e-08
9.95429e-05
8.36971e-08
9.94571e-05
1.66936e-07
9.93253e-05
2.56016e-07
9.91568e-05
3.27042e-07
9.89679e-05
3.66247e-07
9.87746e-05
3.74576e-07
9.85872e-05
3.62713e-07
9.84099e-05
3.43154e-07
9.8242e-05
3.24911e-07
9.80806e-05
3.12147e-07
9.79228e-05
3.05337e-07
9.77662e-05
3.0312e-07
9.76092e-05
3.03719e-07
9.74513e-05
3.05678e-07
9.72922e-05
3.08069e-07
9.71318e-05
3.10413e-07
9.69704e-05
3.12539e-07
9.6808e-05
3.14447e-07
9.66447e-05
3.16204e-07
9.64805e-05
3.17905e-07
9.63155e-05
3.19635e-07
9.61494e-05
3.21474e-07
9.59824e-05
3.23478e-07
9.58142e-05
3.25697e-07
9.56447e-05
3.28166e-07
9.54738e-05
3.30911e-07
9.53013e-05
3.3395e-07
9.51271e-05
3.37294e-07
9.4951e-05
3.40947e-07
9.47729e-05
3.4491e-07
9.45925e-05
3.4918e-07
9.44098e-05
3.53749e-07
9.42246e-05
3.58614e-07
9.40367e-05
3.63766e-07
9.38461e-05
3.69204e-07
9.36524e-05
3.74926e-07
9.34557e-05
3.80935e-07
9.32557e-05
3.87241e-07
9.30523e-05
3.93859e-07
9.28453e-05
4.00808e-07
9.26346e-05
4.08119e-07
9.24199e-05
4.15826e-07
9.2201e-05
4.23974e-07
9.19776e-05
4.32617e-07
9.17495e-05
4.4182e-07
9.15163e-05
4.51657e-07
9.12777e-05
4.62217e-07
9.10332e-05
4.73604e-07
9.07824e-05
4.85938e-07
9.05247e-05
4.99358e-07
9.02595e-05
5.14028e-07
8.9986e-05
5.3014e-07
8.97033e-05
5.4792e-07
8.94106e-05
5.67631e-07
8.91065e-05
5.89589e-07
8.87899e-05
6.14167e-07
8.84591e-05
6.41814e-07
8.81123e-05
6.73072e-07
8.77474e-05
7.08598e-07
8.73617e-05
7.492e-07
8.69523e-05
7.95871e-07
8.65153e-05
8.49853e-07
8.60464e-05
9.12713e-07
8.55402e-05
9.8644e-07
8.49898e-05
1.0736e-06
8.4387e-05
1.17753e-06
8.37214e-05
1.30264e-06
8.29797e-05
1.45484e-06
8.2145e-05
1.64213e-06
8.11951e-05
1.87554e-06
8.01014e-05
2.17042e-06
7.88254e-05
2.54844e-06
7.73164e-05
3.0404e-06
7.55068e-05
3.69026e-06
7.33083e-05
4.56031e-06
7.06102e-05
5.73608e-06
6.72895e-05
7.32778e-06
6.32568e-05
9.4642e-06
5.86413e-05
1.2226e-05
1.52042e-05
5.47756e-05
0.000106562
4.05778e-08
0.000106518
1.28155e-07
0.000106428
2.56383e-07
0.00010629
3.94106e-07
0.000106113
5.04445e-07
0.000105913
5.65961e-07
0.000105708
5.79828e-07
0.000105508
5.62306e-07
0.000105319
5.32591e-07
0.000105139
5.04612e-07
0.000104966
4.84877e-07
0.000104797
4.7422e-07
0.00010463
4.70612e-07
0.000104462
4.71362e-07
0.000104294
4.74242e-07
0.000104124
4.77823e-07
0.000103953
4.81364e-07
0.000103781
4.846e-07
0.000103608
4.87516e-07
0.000103434
4.90221e-07
0.000103259
4.9285e-07
0.000103083
4.95538e-07
0.000102906
4.98396e-07
0.000102728
5.01516e-07
0.000102549
5.04969e-07
0.000102368
5.08812e-07
0.000102186
5.13081e-07
0.000102002
5.17805e-07
0.000101816
5.23e-07
0.000101629
5.28672e-07
0.000101439
5.34821e-07
0.000101246
5.41443e-07
0.000101052
5.48525e-07
0.000100854
5.56061e-07
0.000100654
5.6404e-07
0.000100451
5.72458e-07
0.000100244
5.8131e-07
0.000100035
5.90606e-07
9.98215e-05
6.00357e-07
9.96048e-05
6.10586e-07
9.93843e-05
6.21325e-07
9.91598e-05
6.32617e-07
9.89311e-05
6.44519e-07
9.8698e-05
6.57098e-07
9.84601e-05
6.70436e-07
9.82173e-05
6.84632e-07
9.79692e-05
6.99799e-07
9.77153e-05
7.16075e-07
9.74553e-05
7.33614e-07
9.71886e-05
7.52601e-07
9.69147e-05
7.73248e-07
9.6633e-05
7.95805e-07
9.63425e-05
8.2056e-07
9.60426e-05
8.47854e-07
9.57321e-05
8.78087e-07
9.541e-05
9.11731e-07
9.50748e-05
9.49349e-07
9.4725e-05
9.91613e-07
9.43588e-05
1.03933e-06
9.39739e-05
1.09347e-06
9.35679e-05
1.15523e-06
9.31377e-05
1.22607e-06
9.26797e-05
1.3078e-06
9.21897e-05
1.4027e-06
9.16625e-05
1.51361e-06
9.10919e-05
1.64419e-06
9.04703e-05
1.79913e-06
8.97885e-05
1.98452e-06
8.90349e-05
2.20839e-06
8.81956e-05
2.4814e-06
8.72534e-05
2.81781e-06
8.61869e-05
3.23688e-06
8.49707e-05
3.76462e-06
8.35751e-05
4.43606e-06
8.19677e-05
5.29764e-06
8.01194e-05
6.40856e-06
7.80176e-05
7.8379e-06
7.56948e-05
9.65055e-06
7.32914e-05
1.18676e-05
7.11681e-05
1.43493e-05
1.64826e-05
6.98898e-05
0.000114027
5.43366e-08
0.000113982
1.7345e-07
0.00011389
3.48179e-07
0.000113747
5.3682e-07
0.000113563
6.89092e-07
0.000113353
7.75313e-07
0.000113137
7.96476e-07
0.000112925
7.74275e-07
0.000112723
7.34715e-07
0.00011253
6.96876e-07
0.000112345
6.69838e-07
0.000112165
6.54952e-07
0.000111986
6.4962e-07
0.000111807
6.50261e-07
0.000111627
6.53885e-07
0.000111446
6.58544e-07
0.000111265
6.63229e-07
0.000111082
6.67556e-07
0.000110898
6.71498e-07
0.000110713
6.75181e-07
0.000110527
6.7879e-07
0.00011034
6.82494e-07
0.000110152
6.86449e-07
0.000109962
6.90773e-07
0.000109772
6.95562e-07
0.00010958
7.00888e-07
0.000109386
7.06798e-07
0.000109191
7.13333e-07
0.000108993
7.20512e-07
0.000108793
7.28342e-07
0.000108591
7.36823e-07
0.000108387
7.45945e-07
0.00010818
7.55698e-07
0.00010797
7.66066e-07
0.000107757
7.77036e-07
0.000107541
7.88601e-07
0.000107321
8.00761e-07
0.000107098
8.1352e-07
0.000106872
8.26899e-07
0.000106641
8.40926e-07
0.000106407
8.55646e-07
0.000106168
8.71118e-07
0.000105926
8.87416e-07
0.000105678
9.04632e-07
0.000105426
9.22877e-07
0.000105168
9.42284e-07
0.000104905
9.63008e-07
0.000104636
9.8523e-07
0.00010436
1.00916e-06
0.000104078
1.03504e-06
0.000103788
1.06317e-06
0.00010349
1.09386e-06
0.000103183
1.12751e-06
0.000102866
1.16457e-06
0.000102538
1.20557e-06
0.000102199
1.25112e-06
0.000101846
1.30198e-06
0.000101479
1.35901e-06
0.000101095
1.42326e-06
0.000100693
1.49601e-06
0.000100269
1.57877e-06
9.98216e-05
1.6734e-06
9.93472e-05
1.78221e-06
9.88419e-05
1.90801e-06
9.83012e-05
2.05434e-06
9.77198e-05
2.22562e-06
9.70914e-05
2.42746e-06
9.6409e-05
2.66699e-06
9.5664e-05
2.95339e-06
9.48469e-05
3.29845e-06
9.39473e-05
3.71746e-06
9.29541e-05
4.23008e-06
9.18572e-05
4.86151e-06
9.06499e-05
5.64329e-06
8.93342e-05
6.61334e-06
8.79294e-05
7.8134e-06
8.64866e-05
9.28073e-06
8.51092e-05
1.10279e-05
8.39755e-05
1.30013e-05
8.33233e-05
1.50015e-05
1.65622e-05
8.32437e-05
0.000122015
6.78911e-08
0.00012197
2.18704e-07
0.000121878
4.4068e-07
0.000121732
6.82012e-07
0.000121543
8.78823e-07
0.000121325
9.9265e-07
0.000121098
1.02364e-06
0.000120874
9.9851e-07
0.000120659
9.49992e-07
0.000120453
9.02473e-07
0.000120255
8.67877e-07
0.000120062
8.48317e-07
0.000119871
8.40788e-07
0.00011968
8.40918e-07
0.000119489
8.44978e-07
0.000119297
8.50512e-07
0.000119104
8.56213e-07
0.00011891
8.61567e-07
0.000118715
8.66513e-07
0.000118519
8.71199e-07
0.000118322
8.75832e-07
0.000118124
8.80627e-07
0.000117924
8.85764e-07
0.000117724
8.91394e-07
0.000117522
8.97628e-07
0.000117318
9.04555e-07
0.000117113
9.1224e-07
0.000116905
9.20723e-07
0.000116696
9.30027e-07
0.000116484
9.40162e-07
0.00011627
9.51125e-07
0.000116053
9.62903e-07
0.000115833
9.75481e-07
0.00011561
9.88839e-07
0.000115384
1.00296e-06
0.000115155
1.01783e-06
0.000114922
1.03346e-06
0.000114686
1.04985e-06
0.000114446
1.06701e-06
0.000114202
1.08501e-06
0.000113953
1.10387e-06
0.000113701
1.12369e-06
0.000113444
1.14455e-06
0.000113182
1.16657e-06
0.000112915
1.18989e-06
0.000112642
1.21468e-06
0.000112364
1.24112e-06
0.00011208
1.26945e-06
0.000111789
1.29993e-06
0.000111491
1.33285e-06
0.000111186
1.36859e-06
0.000110872
1.40754e-06
0.00011055
1.45018e-06
0.000110217
1.49706e-06
0.000109874
1.54883e-06
0.000109519
1.60625e-06
0.000109151
1.67021e-06
0.000108768
1.74176e-06
0.000108369
1.82215e-06
0.000107952
1.91288e-06
0.000107515
2.01573e-06
0.000107056
2.13287e-06
0.000106571
2.26692e-06
0.000106058
2.42106e-06
0.000105513
2.59921e-06
0.000104932
2.8062e-06
0.000104312
3.04799e-06
0.000103647
3.33196e-06
0.000102933
3.66733e-06
0.000102166
4.06549e-06
0.000101343
4.54052e-06
0.000100463
5.10962e-06
9.95315e-05
5.79324e-06
9.85601e-05
6.61473e-06
9.75748e-05
7.59859e-06
9.66222e-05
8.76604e-06
9.57772e-05
1.01257e-05
9.51488e-05
1.16563e-05
9.48714e-05
1.32788e-05
9.50543e-05
1.48186e-05
1.59764e-05
9.56401e-05
0.000130563
8.09955e-08
0.000130519
2.62945e-07
0.000130428
5.32047e-07
0.000130283
8.27178e-07
0.00013009
1.07106e-06
0.000129867
1.21588e-06
0.000129631
1.26007e-06
0.000129395
1.23463e-06
0.000129166
1.17869e-06
0.000128946
1.12205e-06
0.000128735
1.07976e-06
0.000128528
1.05504e-06
0.000128324
1.04471e-06
0.000128121
1.04378e-06
0.000127918
1.04783e-06
0.000127715
1.05391e-06
0.000127511
1.06042e-06
0.000127305
1.06668e-06
0.000127099
1.07259e-06
0.000126892
1.07828e-06
0.000126684
1.08398e-06
0.000126475
1.08993e-06
0.000126264
1.09635e-06
0.000126052
1.10339e-06
0.000125839
1.1112e-06
0.000125623
1.11987e-06
0.000125406
1.12947e-06
0.000125187
1.14005e-06
0.000124965
1.15163e-06
0.000124741
1.16422e-06
0.000124514
1.17782e-06
0.000124285
1.19241e-06
0.000124052
1.20796e-06
0.000123817
1.22446e-06
0.000123578
1.24187e-06
0.000123336
1.2602e-06
0.00012309
1.27944e-06
0.00012284
1.29959e-06
0.000122586
1.32068e-06
0.000122328
1.34277e-06
0.000122066
1.36591e-06
0.0001218
1.39019e-06
0.000121529
1.41573e-06
0.000121253
1.44267e-06
0.000120971
1.47117e-06
0.000120685
1.50142e-06
0.000120392
1.53367e-06
0.000120093
1.56817e-06
0.000119788
1.60523e-06
0.000119476
1.64522e-06
0.000119156
1.68855e-06
0.000118827
1.73569e-06
0.00011849
1.7872e-06
0.000118144
1.84372e-06
0.000117787
1.90599e-06
0.000117418
1.97488e-06
0.000117037
2.05139e-06
0.000116642
2.13671e-06
0.000116232
2.23224e-06
0.000115805
2.33961e-06
0.00011536
2.46078e-06
0.000114895
2.59807e-06
0.000114407
2.75423e-06
0.000113896
2.93259e-06
0.000113358
3.13712e-06
0.000112792
3.37258e-06
0.000112195
3.64472e-06
0.000111566
3.96041e-06
0.000110906
4.32787e-06
0.000110215
4.75679e-06
0.000109497
5.25851e-06
0.00010876
5.84583e-06
0.000108021
6.53266e-06
0.000107303
7.33281e-06
0.000106644
8.25767e-06
0.000106098
9.31181e-06
0.000105738
1.04856e-05
0.00010565
1.17442e-05
0.000105916
1.30131e-05
0.000106569
1.41651e-05
1.50227e-05
0.000107523
0.00013971
9.33966e-08
0.000139668
3.05204e-07
0.00013958
6.20378e-07
0.000139437
9.69687e-07
0.000139245
1.26298e-06
0.000139019
1.4426e-06
0.000138775
1.50416e-06
0.000138527
1.48189e-06
0.000138285
1.42079e-06
0.000138051
1.35602e-06
0.000137825
1.30609e-06
0.000137604
1.2757e-06
0.000137387
1.26188e-06
0.000137172
1.25918e-06
0.000136957
1.26264e-06
0.000136742
1.26884e-06
0.000136527
1.27586e-06
0.00013631
1.28286e-06
0.000136093
1.28964e-06
0.000135875
1.29631e-06
0.000135656
1.30312e-06
0.000135436
1.31031e-06
0.000135214
1.3181e-06
0.000134991
1.32669e-06
0.000134766
1.3362e-06
0.000134539
1.34676e-06
0.00013431
1.35843e-06
0.000134079
1.37126e-06
0.000133845
1.38528e-06
0.000133609
1.40048e-06
0.00013337
1.41687e-06
0.000133128
1.43441e-06
0.000132883
1.45308e-06
0.000132634
1.47285e-06
0.000132382
1.49369e-06
0.000132127
1.51559e-06
0.000131868
1.53854e-06
0.000131605
1.56256e-06
0.000131338
1.58768e-06
0.000131067
1.61395e-06
0.000130791
1.64144e-06
0.000130511
1.67025e-06
0.000130226
1.70053e-06
0.000129937
1.73242e-06
0.000129642
1.76611e-06
0.000129341
1.80183e-06
0.000129035
1.83984e-06
0.000128723
1.88045e-06
0.000128404
1.92399e-06
0.000128078
1.97089e-06
0.000127745
2.0216e-06
0.000127404
2.07665e-06
0.000127055
2.13665e-06
0.000126696
2.20231e-06
0.000126328
2.27444e-06
0.000125949
2.35397e-06
0.000125558
2.44199e-06
0.000125155
2.53975e-06
0.000124739
2.64871e-06
0.000124308
2.77058e-06
0.000123861
2.90733e-06
0.000123398
3.06128e-06
0.000122917
3.23514e-06
0.000122417
3.43208e-06
0.000121899
3.6558e-06
0.000121361
3.9106e-06
0.000120804
4.20147e-06
0.00012023
4.53415e-06
0.000119643
4.91511e-06
0.000119048
5.35158e-06
0.000118455
5.85131e-06
0.000117879
6.42222e-06
0.00011734
7.07162e-06
0.000116868
7.80494e-06
0.000116502
8.62361e-06
0.000116292
9.52178e-06
0.000116296
1.04817e-05
0.000116572
1.14681e-05
0.000117163
1.24223e-05
0.000118067
1.32608e-05
1.38826e-05
0.000119207
0.000149498
1.04887e-07
0.000149459
3.44633e-07
0.000149375
7.03958e-07
0.000149238
1.10705e-06
0.000149049
1.45177e-06
0.000148821
1.67026e-06
0.000148572
1.75401e-06
0.000148314
1.73921e-06
0.000148059
1.67589e-06
0.000147811
1.60446e-06
0.00014757
1.54717e-06
0.000147335
1.51068e-06
0.000147104
1.49259e-06
0.000146876
1.48732e-06
0.000146649
1.4895e-06
0.000146423
1.49529e-06
0.000146196
1.50245e-06
0.000145969
1.50995e-06
0.000145741
1.51748e-06
0.000145512
1.52511e-06
0.000145282
1.53305e-06
0.000145051
1.54155e-06
0.000144818
1.55083e-06
0.000144584
1.56108e-06
0.000144348
1.57246e-06
0.000144109
1.58506e-06
0.000143869
1.59896e-06
0.000143626
1.6142e-06
0.00014338
1.63081e-06
0.000143132
1.64878e-06
0.000142881
1.6681e-06
0.000142627
1.68873e-06
0.000142369
1.71064e-06
0.000142108
1.73379e-06
0.000141844
1.75815e-06
0.000141575
1.78371e-06
0.000141304
1.81045e-06
0.000141028
1.8384e-06
0.000140748
1.86758e-06
0.000140464
1.89805e-06
0.000140175
1.9299e-06
0.000139882
1.96323e-06
0.000139585
1.9982e-06
0.000139282
2.03498e-06
0.000138974
2.07377e-06
0.000138661
2.11483e-06
0.000138343
2.15844e-06
0.000138018
2.20492e-06
0.000137688
2.25467e-06
0.00013735
2.30811e-06
0.000137006
2.36575e-06
0.000136655
2.42814e-06
0.000136295
2.49594e-06
0.000135928
2.56988e-06
0.000135551
2.65081e-06
0.000135166
2.73968e-06
0.00013477
2.8376e-06
0.000134364
2.94582e-06
0.000133947
3.06578e-06
0.000133518
3.19914e-06
0.000133078
3.34776e-06
0.000132625
3.51381e-06
0.000132161
3.69974e-06
0.000131685
3.90833e-06
0.000131198
4.14271e-06
0.000130702
4.4064e-06
0.0001302
4.70326e-06
0.000129697
5.03749e-06
0.000129198
5.41351e-06
0.000128714
5.83578e-06
0.000128257
6.3085e-06
0.000127844
6.83514e-06
0.000127498
7.41766e-06
0.000127247
8.05547e-06
0.000127127
8.7439e-06
0.000127177
9.47228e-06
0.000127437
1.02216e-05
0.000127943
1.09622e-05
0.000128712
1.16526e-05
0.000129732
1.22408e-05
1.26712e-05
0.000130944
0.000159972
1.15347e-07
0.000159936
3.80638e-07
0.000159858
7.81472e-07
0.000159728
1.23721e-06
0.000159545
1.63495e-06
0.000159319
1.89636e-06
0.000159065
2.00756e-06
0.000158799
2.0051e-06
0.000158532
1.94312e-06
0.00015827
1.86698e-06
0.000158014
1.80292e-06
0.000157765
1.76001e-06
0.00015752
1.73692e-06
0.000157279
1.72824e-06
0.00015704
1.72837e-06
0.000156803
1.73314e-06
0.000156565
1.74001e-06
0.000156327
1.74774e-06
0.000156089
1.75588e-06
0.000155849
1.76441e-06
0.000155609
1.7735e-06
0.000155367
1.78338e-06
0.000155124
1.79425e-06
0.000154879
1.80631e-06
0.000154631
1.81969e-06
0.000154382
1.83449e-06
0.00015413
1.85079e-06
0.000153876
1.8686e-06
0.000153618
1.88795e-06
0.000153358
1.90883e-06
0.000153095
1.9312e-06
0.000152829
1.95503e-06
0.000152559
1.98027e-06
0.000152286
2.00689e-06
0.00015201
2.03483e-06
0.000151729
2.06408e-06
0.000151445
2.09464e-06
0.000151157
2.1265e-06
0.000150865
2.15972e-06
0.000150568
2.19435e-06
0.000150268
2.23047e-06
0.000149963
2.26822e-06
0.000149653
2.30774e-06
0.000149339
2.34922e-06
0.00014902
2.39289e-06
0.000148696
2.439e-06
0.000148366
2.48785e-06
0.000148032
2.5398e-06
0.000147691
2.59524e-06
0.000147344
2.65462e-06
0.000146992
2.71845e-06
0.000146633
2.7873e-06
0.000146267
2.86184e-06
0.000145894
2.94279e-06
0.000145514
3.03099e-06
0.000145126
3.12737e-06
0.000144731
3.23299e-06
0.000144327
3.34903e-06
0.000143916
3.47681e-06
0.000143498
3.61784e-06
0.000143072
3.77375e-06
0.000142639
3.94641e-06
0.000142201
4.13782e-06
0.000141759
4.35021e-06
0.000141316
4.58594e-06
0.000140875
4.84753e-06
0.00014044
5.13757e-06
0.000140019
5.45859e-06
0.00013962
5.81296e-06
0.000139253
6.20263e-06
0.000138933
6.62882e-06
0.000138676
7.09157e-06
0.000138505
7.58923e-06
0.000138442
8.11766e-06
0.000138517
8.66944e-06
0.000138756
9.23294e-06
0.000139186
9.7914e-06
0.000139826
1.03225e-05
0.00014068
1.07986e-05
0.000141732
1.11887e-05
1.14625e-05
0.000142941
0.000171179
1.24771e-07
0.000171146
4.12972e-07
0.000171076
8.52199e-07
0.000170954
1.35883e-06
0.000170778
1.81063e-06
0.000170556
2.11876e-06
0.000170301
2.26269e-06
0.000170028
2.2778e-06
0.00016975
2.22115e-06
0.000169474
2.14267e-06
0.000169205
2.07276e-06
0.000168941
2.02336e-06
0.000168683
1.99465e-06
0.00016843
1.98176e-06
0.000168179
1.97908e-06
0.00016793
1.9822e-06
0.000167682
1.98833e-06
0.000167434
1.99598e-06
0.000167185
2.00455e-06
0.000166935
2.01391e-06
0.000166685
2.02416e-06
0.000166433
2.03548e-06
0.000166179
2.04805e-06
0.000165923
2.06205e-06
0.000165665
2.07758e-06
0.000165405
2.09474e-06
0.000165142
2.11357e-06
0.000164877
2.1341e-06
0.000164608
2.15633e-06
0.000164337
2.18023e-06
0.000164062
2.20575e-06
0.000163785
2.23286e-06
0.000163503
2.26149e-06
0.000163219
2.29159e-06
0.00016293
2.32312e-06
0.000162638
2.35604e-06
0.000162343
2.39036e-06
0.000162043
2.42607e-06
0.00016174
2.46321e-06
0.000161432
2.50184e-06
0.000161121
2.54206e-06
0.000160805
2.58399e-06
0.000160485
2.62779e-06
0.00016016
2.67365e-06
0.000159831
2.72179e-06
0.000159498
2.77249e-06
0.00015916
2.82605e-06
0.000158817
2.88281e-06
0.000158469
2.94318e-06
0.000158116
3.0076e-06
0.000157758
3.07657e-06
0.000157394
3.15066e-06
0.000157026
3.23048e-06
0.000156652
3.31673e-06
0.000156273
3.41019e-06
0.000155888
3.51171e-06
0.000155499
3.62225e-06
0.000155105
3.74283e-06
0.000154707
3.87459e-06
0.000154306
4.01877e-06
0.000153903
4.1767e-06
0.0001535
4.3498e-06
0.000153098
4.53955e-06
0.000152701
4.74749e-06
0.000152312
4.97515e-06
0.000151935
5.22398e-06
0.000151578
5.49532e-06
0.000151246
5.79019e-06
0.00015095
6.1092e-06
0.0001507
6.45232e-06
0.00015051
6.81862e-06
0.000150396
7.20598e-06
0.000150374
7.61074e-06
0.000150465
8.02729e-06
0.000150686
8.44775e-06
0.000151058
8.86164e-06
0.000151593
9.25577e-06
0.000152301
9.61441e-06
0.00015318
9.92002e-06
0.000154214
1.01546e-05
1.0302e-05
0.000155375
0.000183171
1.33273e-07
0.000183142
4.4177e-07
0.000183078
9.16101e-07
0.000182965
1.47143e-06
0.000182798
1.97772e-06
0.000182581
2.33582e-06
0.000182326
2.51746e-06
0.000182049
2.55533e-06
0.000181762
2.50824e-06
0.000181474
2.43014e-06
0.000181191
2.35567e-06
0.000180915
2.3e-06
0.000180644
2.26526e-06
0.000180378
2.24749e-06
0.000180116
2.2413e-06
0.000179856
2.24217e-06
0.000179597
2.2471e-06
0.000179339
2.25436e-06
0.00017908
2.26318e-06
0.000178821
2.27329e-06
0.000178561
2.28469e-06
0.000178298
2.29751e-06
0.000178035
2.31188e-06
0.000177769
2.32792e-06
0.000177501
2.34573e-06
0.00017723
2.36538e-06
0.000176957
2.38688e-06
0.000176681
2.41025e-06
0.000176401
2.43545e-06
0.000176119
2.46245e-06
0.000175834
2.49118e-06
0.000175545
2.52159e-06
0.000175253
2.55361e-06
0.000174957
2.58717e-06
0.000174658
2.62221e-06
0.000174356
2.65872e-06
0.000174049
2.69665e-06
0.000173739
2.73603e-06
0.000173426
2.77688e-06
0.000173108
2.81926e-06
0.000172787
2.86326e-06
0.000172462
2.90901e-06
0.000172133
2.95666e-06
0.0001718
3.0064e-06
0.000171464
3.05844e-06
0.000171123
3.11306e-06
0.000170779
3.17054e-06
0.00017043
3.23122e-06
0.000170078
3.29548e-06
0.000169722
3.36374e-06
0.000169362
3.43647e-06
0.000168998
3.51417e-06
0.000168631
3.59741e-06
0.000168261
3.68682e-06
0.000167888
3.78306e-06
0.000167513
3.88686e-06
0.000167137
3.999e-06
0.000166759
4.12032e-06
0.000166382
4.25168e-06
0.000166007
4.39402e-06
0.000165635
4.54826e-06
0.00016527
4.71535e-06
0.000164913
4.89618e-06
0.000164569
5.0916e-06
0.000164242
5.30231e-06
0.000163937
5.52882e-06
0.000163661
5.77136e-06
0.000163421
6.02977e-06
0.000163227
6.30335e-06
0.000163089
6.59074e-06
0.000163017
6.88975e-06
0.000163026
7.19717e-06
0.000163128
7.50863e-06
0.000163337
7.81846e-06
0.000163665
8.1196e-06
0.000164123
8.40362e-06
0.000164718
8.66086e-06
0.000165452
8.88084e-06
0.000166319
9.0528e-06
0.000167307
9.16659e-06
9.21375e-06
0.000168395
0.000196002
1.41065e-07
0.000195976
4.67503e-07
0.000195919
9.73756e-07
0.000195815
1.57536e-06
0.000195656
2.13598e-06
0.000195446
2.54653e-06
0.000195193
2.77022e-06
0.000194913
2.8357e-06
0.000194619
2.80236e-06
0.000194321
2.72757e-06
0.000194027
2.65015e-06
0.000193738
2.58878e-06
0.000193455
2.5479e-06
0.000193178
2.5248e-06
0.000192905
2.51454e-06
0.000192634
2.51266e-06
0.000192365
2.51597e-06
0.000192097
2.52256e-06
0.000191829
2.53144e-06
0.00019156
2.54221e-06
0.00019129
2.55476e-06
0.000191018
2.56911e-06
0.000190745
2.58534e-06
0.000190469
2.60353e-06
0.000190191
2.62372e-06
0.000189911
2.64595e-06
0.000189627
2.67022e-06
0.000189341
2.69649e-06
0.000189052
2.72472e-06
0.000188759
2.75484e-06
0.000188464
2.78678e-06
0.000188165
2.82046e-06
0.000187863
2.85579e-06
0.000187557
2.8927e-06
0.000187248
2.93112e-06
0.000186936
2.971e-06
0.00018662
3.01233e-06
0.000186301
3.05509e-06
0.000185979
3.09931e-06
0.000185653
3.14504e-06
0.000185324
3.19238e-06
0.000184991
3.24142e-06
0.000184656
3.29231e-06
0.000184317
3.34523e-06
0.000183975
3.40039e-06
0.00018363
3.45802e-06
0.000183282
3.5184e-06
0.000182932
3.58183e-06
0.000182578
3.64865e-06
0.000182223
3.71923e-06
0.000181865
3.79397e-06
0.000181506
3.87332e-06
0.000181146
3.95774e-06
0.000180785
4.04774e-06
0.000180424
4.14386e-06
0.000180064
4.24665e-06
0.000179707
4.35669e-06
0.000179352
4.47456e-06
0.000179003
4.60084e-06
0.000178661
4.73611e-06
0.000178329
4.88087e-06
0.000178008
5.03559e-06
0.000177704
5.20062e-06
0.000177419
5.37616e-06
0.000177159
5.56222e-06
0.00017693
5.75853e-06
0.000176737
5.96452e-06
0.000176587
6.17918e-06
0.000176489
6.40103e-06
0.000176452
6.62798e-06
0.000176485
6.85733e-06
0.000176596
7.08561e-06
0.000176796
7.30861e-06
0.000177093
7.52135e-06
0.000177495
7.71815e-06
0.000178006
7.89274e-06
0.000178628
8.03849e-06
0.00017936
8.14872e-06
0.000180196
8.21709e-06
0.000181124
8.23809e-06
8.20749e-06
0.000182131
0.000209732
1.48418e-07
0.000209709
4.90871e-07
0.000209656
1.02622e-06
0.00020956
1.67164e-06
0.00020941
2.28589e-06
0.000209206
2.75054e-06
0.000208956
3.01974e-06
0.000208675
3.11704e-06
0.000208376
3.10139e-06
0.000208071
3.03293e-06
0.000207766
2.95444e-06
0.000207467
2.88827e-06
0.000207173
2.84147e-06
0.000206885
2.81286e-06
0.000206602
2.79819e-06
0.000206321
2.79317e-06
0.000206043
2.79453e-06
0.000205765
2.80019e-06
0.000205487
2.80899e-06
0.000205209
2.82033e-06
0.00020493
2.83399e-06
0.000204649
2.84988e-06
0.000204367
2.86802e-06
0.000204082
2.88841e-06
0.000203794
2.91105e-06
0.000203505
2.93591e-06
0.000203212
2.96298e-06
0.000202916
2.99217e-06
0.000202617
3.02341e-06
0.000202316
3.05662e-06
0.000202011
3.09169e-06
0.000201703
3.12851e-06
0.000201391
3.167e-06
0.000201077
3.20705e-06
0.00020076
3.24859e-06
0.000200439
3.29156e-06
0.000200115
3.33591e-06
0.000199789
3.38164e-06
0.000199459
3.42876e-06
0.000199127
3.47731e-06
0.000198792
3.52735e-06
0.000198455
3.57898e-06
0.000198115
3.63233e-06
0.000197772
3.68754e-06
0.000197428
3.74479e-06
0.000197082
3.8043e-06
0.000196734
3.86629e-06
0.000196385
3.93102e-06
0.000196034
3.99876e-06
0.000195684
4.06982e-06
0.000195333
4.14453e-06
0.000194983
4.22321e-06
0.000194635
4.30623e-06
0.000194289
4.39394e-06
0.000193946
4.48672e-06
0.000193608
4.58493e-06
0.000193275
4.68891e-06
0.000192951
4.79898e-06
0.000192636
4.91543e-06
0.000192334
5.03848e-06
0.000192047
5.16825e-06
0.000191777
5.30478e-06
0.00019153
5.44793e-06
0.000191309
5.5974e-06
0.000191118
5.75268e-06
0.000190964
5.91296e-06
0.000190851
6.07716e-06
0.000190787
6.24381e-06
0.000190777
6.41108e-06
0.000190828
6.57667e-06
0.000190947
6.73787e-06
0.000191141
6.89149e-06
0.000191416
7.03395e-06
0.000191776
7.16129e-06
0.000192225
7.26929e-06
0.000192764
7.35359e-06
0.000193393
7.4099e-06
0.000194107
7.4342e-06
0.000194901
7.42293e-06
0.000195766
7.37329e-06
7.28341e-06
0.00019669
0.000224423
1.55592e-07
0.000224402
5.1266e-07
0.000224353
1.07476e-06
0.000224263
1.76169e-06
0.00022412
2.42849e-06
0.000223923
2.94801e-06
0.000223677
3.26521e-06
0.000223397
3.39778e-06
0.000223095
3.4033e-06
0.000222784
3.34408e-06
0.000222472
3.26659e-06
0.000222163
3.19682e-06
0.00022186
3.14466e-06
0.000221562
3.11064e-06
0.000221269
3.09144e-06
0.000220979
3.08306e-06
0.000220691
3.08226e-06
0.000220405
3.08681e-06
0.000220118
3.09538e-06
0.000219831
3.10721e-06
0.000219543
3.12194e-06
0.000219254
3.13937e-06
0.000218962
3.15942e-06
0.000218669
3.18201e-06
0.000218373
3.20709e-06
0.000218074
3.23459e-06
0.000217773
3.26442e-06
0.000217468
3.29647e-06
0.000217161
3.33064e-06
0.000216851
3.3668e-06
0.000216538
3.40482e-06
0.000216222
3.44458e-06
0.000215903
3.48596e-06
0.000215581
3.52884e-06
0.000215256
3.57313e-06
0.000214929
3.61876e-06
0.000214599
3.66566e-06
0.000214267
3.7138e-06
0.000213933
3.76319e-06
0.000213596
3.81384e-06
0.000213258
3.86579e-06
0.000212918
3.91912e-06
0.000212576
3.97392e-06
0.000212233
4.0303e-06
0.00021189
4.08841e-06
0.000211546
4.14841e-06
0.000211202
4.21047e-06
0.000210858
4.27478e-06
0.000210515
4.34154e-06
0.000210174
4.41098e-06
0.000209835
4.48331e-06
0.000209499
4.55875e-06
0.000209168
4.63753e-06
0.000208842
4.71984e-06
0.000208523
4.80588e-06
0.000208212
4.8958e-06
0.000207911
4.98974e-06
0.000207623
5.08775e-06
0.000207348
5.18984e-06
0.000207091
5.29591e-06
0.000206853
5.40578e-06
0.000206639
5.51912e-06
0.000206451
5.63546e-06
0.000206295
5.75415e-06
0.000206173
5.87432e-06
0.000206091
5.99489e-06
0.000206054
6.11454e-06
0.000206066
6.23165e-06
0.000206132
6.34437e-06
0.000206259
6.45055e-06
0.000206449
6.54779e-06
0.000206707
6.63347e-06
0.000207036
6.70478e-06
0.000207438
6.75883e-06
0.000207915
6.79271e-06
0.000208465
6.80359e-06
0.000209086
6.78889e-06
0.000209774
6.74634e-06
0.000210523
6.67417e-06
0.000211325
6.57112e-06
6.43656e-06
0.000212172
0.000240144
1.62826e-07
0.000240123
5.33612e-07
0.000240077
1.12069e-06
0.000239991
1.84708e-06
0.000239855
2.56505e-06
0.000239663
3.13949e-06
0.000239422
3.50624e-06
0.000239143
3.67664e-06
0.00023884
3.70629e-06
0.000238526
3.65899e-06
0.000238208
3.5846e-06
0.000237892
3.51269e-06
0.00023758
3.45599e-06
0.000237274
3.41697e-06
0.000236972
3.39335e-06
0.000236674
3.38158e-06
0.000236377
3.37851e-06
0.000236082
3.38183e-06
0.000235788
3.39006e-06
0.000235493
3.40231e-06
0.000235196
3.41805e-06
0.000234899
3.43697e-06
0.000234599
3.45889e-06
0.000234298
3.48364e-06
0.000233994
3.51111e-06
0.000233687
3.54115e-06
0.000233378
3.57363e-06
0.000233066
3.60839e-06
0.000232751
3.6453e-06
0.000232434
3.68418e-06
0.000232114
3.72489e-06
0.000231791
3.76726e-06
0.000231466
3.81114e-06
0.000231138
3.85642e-06
0.000230809
3.90296e-06
0.000230477
3.95067e-06
0.000230143
3.99948e-06
0.000229807
4.04933e-06
0.00022947
4.10019e-06
0.000229132
4.15206e-06
0.000228793
4.20494e-06
0.000228453
4.25888e-06
0.000228113
4.31392e-06
0.000227773
4.37015e-06
0.000227434
4.42765e-06
0.000227096
4.48652e-06
0.00022676
4.54688e-06
0.000226426
4.60882e-06
0.000226095
4.67248e-06
0.000225768
4.73796e-06
0.000225446
4.80538e-06
0.000225129
4.87483e-06
0.000224821
4.94639e-06
0.00022452
5.02011e-06
0.00022423
5.09599e-06
0.000223952
5.17402e-06
0.000223688
5.2541e-06
0.000223439
5.33609e-06
0.000223209
5.41976e-06
0.000223
5.50477e-06
0.000222816
5.59069e-06
0.000222658
5.67697e-06
0.00022253
5.76291e-06
0.000222437
5.84767e-06
0.000222381
5.93025e-06
0.000222366
6.00946e-06
0.000222397
6.08397e-06
0.000222476
6.15226e-06
0.000222608
6.21267e-06
0.000222795
6.26337e-06
0.00022304
6.30246e-06
0.000223346
6.32795e-06
0.000223713
6.33783e-06
0.000224141
6.33013e-06
0.000224631
6.30302e-06
0.00022518
6.25481e-06
0.000225785
6.1841e-06
0.000226441
6.08979e-06
0.000227144
5.97116e-06
0.000227888
5.82785e-06
5.65987e-06
0.000228664
0.000256965
1.70284e-07
0.000256944
5.54347e-07
0.0002569
1.16514e-06
0.000256817
1.92925e-06
0.000256685
2.69691e-06
0.000256499
3.32573e-06