/*--------------------------------*- C++ -*----------------------------------*\
| =========                 |                                                 |
| \\      /  F ield         | OpenFOAM: The Open Source CFD Toolbox           |
|  \\    /   O peration     | Version:  2106                                  |
|   \\  /    A nd           | Website:  www.openfoam.com                      |
|    \\/     M anipulation  |                                                 |
\*---------------------------------------------------------------------------*/
FoamFile
{
    version     2.0;
    format      ascii;
    arch        "LSB;label=32;scalar=64";
    class       surfaceScalarField;
    location    "0.6";
    object      phi;
}
// * * * * * * * * * * * * * * * * * * * * * * * * * * * * * * * * * * * * * //

dimensions      [1 0 -1 0 0 0 0];

oriented        oriented;

internalField   nonuniform List<scalar> 
23692
(
9.30743e-05
5.2327e-09
9.30473e-05
2.70093e-08
9.2984e-05
6.33612e-08
9.28802e-05
1.03851e-07
9.2744e-05
1.36336e-07
9.25903e-05
1.53841e-07
9.24338e-05
1.56664e-07
9.22841e-05
1.4987e-07
9.21448e-05
1.39448e-07
9.20154e-05
1.2971e-07
9.18931e-05
1.22634e-07
9.1775e-05
1.18432e-07
9.16591e-05
1.1643e-07
9.15438e-05
1.15766e-07
9.14287e-05
1.15727e-07
9.13135e-05
1.15856e-07
9.11984e-05
1.1591e-07
9.10836e-05
1.15789e-07
9.09691e-05
1.15469e-07
9.08553e-05
1.14958e-07
9.07423e-05
1.14282e-07
9.06303e-05
1.13447e-07
9.05195e-05
1.12466e-07
9.04099e-05
1.11342e-07
9.03018e-05
1.10072e-07
9.01952e-05
1.0865e-07
9.00905e-05
1.07069e-07
8.99877e-05
1.05322e-07
8.9887e-05
1.03406e-07
8.97885e-05
1.0132e-07
8.96926e-05
9.90703e-08
8.95993e-05
9.6664e-08
8.95087e-05
9.41147e-08
8.94211e-05
9.14426e-08
8.93364e-05
8.86728e-08
8.92548e-05
8.58382e-08
8.91763e-05
8.29715e-08
8.91008e-05
8.01113e-08
8.90284e-05
7.73032e-08
8.8959e-05
7.45927e-08
8.88923e-05
7.20305e-08
8.88281e-05
6.96668e-08
8.87663e-05
6.75569e-08
8.87065e-05
6.57591e-08
8.86483e-05
6.43308e-08
8.85913e-05
6.33338e-08
8.8535e-05
6.28322e-08
8.84788e-05
6.28951e-08
8.84221e-05
6.35945e-08
8.83641e-05
6.501e-08
8.8304e-05
6.72274e-08
8.8241e-05
7.03434e-08
8.81739e-05
7.44672e-08
8.81018e-05
7.97227e-08
8.80232e-05
8.62557e-08
8.79367e-05
9.42361e-08
8.78408e-05
1.03865e-07
8.77333e-05
1.15383e-07
8.76123e-05
1.29082e-07
8.74751e-05
1.45318e-07
8.73188e-05
1.64526e-07
8.71398e-05
1.8725e-07
8.69339e-05
2.14168e-07
8.66961e-05
2.46139e-07
8.64202e-05
2.84263e-07
8.60986e-05
3.29964e-07
8.57219e-05
3.8511e-07
8.52781e-05
4.52191e-07
8.47519e-05
5.34575e-07
8.41234e-05
6.36898e-07
8.33661e-05
7.65656e-07
8.24443e-05
9.3013e-07
8.13089e-05
1.14384e-06
7.98903e-05
1.42686e-06
7.8089e-05
1.8096e-06
7.57584e-05
2.33885e-06
7.26793e-05
3.08727e-06
6.85182e-05
4.16929e-06
6.27482e-05
5.77812e-06
5.44799e-05
8.2763e-06
1.26274e-05
4.18606e-05
9.95943e-05
1.02954e-08
9.95662e-05
5.51483e-08
9.94995e-05
1.30114e-07
9.93896e-05
2.13805e-07
9.92449e-05
2.81142e-07
9.90812e-05
3.17628e-07
9.89143e-05
3.23768e-07
9.87544e-05
3.09983e-07
9.86054e-05
2.88608e-07
9.84669e-05
2.68558e-07
9.83359e-05
2.53946e-07
9.82095e-05
2.45232e-07
9.80854e-05
2.41049e-07
9.79621e-05
2.39624e-07
9.7839e-05
2.39499e-07
9.77158e-05
2.3973e-07
9.75928e-05
2.39816e-07
9.747e-05
2.39547e-07
9.73477e-05
2.38877e-07
9.72261e-05
2.37823e-07
9.71053e-05
2.36419e-07
9.69856e-05
2.34702e-07
9.68671e-05
2.32686e-07
9.675e-05
2.30374e-07
9.66343e-05
2.27764e-07
9.65204e-05
2.24843e-07
9.64084e-05
2.21597e-07
9.62983e-05
2.18016e-07
9.61906e-05
2.14087e-07
9.60852e-05
2.09812e-07
9.59824e-05
2.05199e-07
9.58824e-05
2.00268e-07
9.57853e-05
1.95046e-07
9.56912e-05
1.89575e-07
9.56002e-05
1.83907e-07
9.55125e-05
1.78104e-07
9.5428e-05
1.72239e-07
9.53467e-05
1.66395e-07
9.52686e-05
1.60659e-07
9.51935e-05
1.55128e-07
9.51214e-05
1.49903e-07
9.50519e-05
1.45093e-07
9.49847e-05
1.4081e-07
9.49197e-05
1.3717e-07
9.48563e-05
1.34295e-07
9.47941e-05
1.32311e-07
9.47326e-05
1.31351e-07
9.46711e-05
1.31554e-07
9.46089e-05
1.33072e-07
9.45454e-05
1.36065e-07
9.44795e-05
1.4071e-07
9.44105e-05
1.47206e-07
9.43371e-05
1.55775e-07
9.42583e-05
1.6667e-07
9.41726e-05
1.80188e-07
9.40784e-05
1.96674e-07
9.39742e-05
2.16537e-07
9.38579e-05
2.40267e-07
9.37271e-05
2.6845e-07
9.35793e-05
3.01805e-07
9.34114e-05
3.41208e-07
9.32197e-05
3.87746e-07
9.3e-05
4.42775e-07
9.2747e-05
5.07999e-07
9.24546e-05
5.8559e-07
9.21152e-05
6.7834e-07
9.17194e-05
7.89891e-07
9.12555e-05
9.25037e-07
9.07089e-05
1.0902e-06
9.00607e-05
1.2941e-06
8.92866e-05
1.54873e-06
8.83548e-05
1.87087e-06
8.72233e-05
2.28427e-06
8.58361e-05
2.82297e-06
8.41185e-05
3.53602e-06
8.19723e-05
4.49387e-06
7.92731e-05
5.79525e-06
7.58798e-05
7.57133e-06
7.16835e-05
9.98312e-06
6.68156e-05
1.31528e-05
1.66679e-05
6.27836e-05
0.000106571
1.50198e-08
0.000106542
8.38243e-08
0.000106473
1.99232e-07
0.000106359
3.28606e-07
0.000106207
4.33241e-07
0.000106034
4.90564e-07
0.000105857
5.01062e-07
0.000105686
4.80582e-07
0.000105527
4.48067e-07
0.000105379
4.17305e-07
0.000105238
3.94728e-07
0.000105103
3.81136e-07
0.00010497
3.74499e-07
0.000104838
3.72125e-07
0.000104706
3.71785e-07
0.000104575
3.72026e-07
0.000104444
3.72075e-07
0.000104313
3.71605e-07
0.000104182
3.70532e-07
0.000104052
3.68881e-07
0.000103924
3.66707e-07
0.000103796
3.64054e-07
0.000103669
3.60947e-07
0.000103544
3.57394e-07
0.000103421
3.53385e-07
0.000103299
3.48905e-07
0.00010318
3.43933e-07
0.000103062
3.38446e-07
0.000102947
3.32435e-07
0.000102834
3.25898e-07
0.000102724
3.1885e-07
0.000102617
3.11319e-07
0.000102513
3.03348e-07
0.000102411
2.95002e-07
0.000102314
2.86361e-07
0.000102219
2.77523e-07
0.000102128
2.686e-07
0.00010204
2.59716e-07
0.000101955
2.51008e-07
0.000101873
2.42625e-07
0.000101795
2.34724e-07
0.000101719
2.27469e-07
0.000101645
2.21034e-07
0.000101573
2.156e-07
0.000101503
2.11352e-07
0.000101434
2.08483e-07
0.000101366
2.07197e-07
0.000101298
2.07711e-07
0.000101228
2.10253e-07
0.000101157
2.15071e-07
0.000101084
2.22436e-07
0.000101007
2.32649e-07
0.000100925
2.46049e-07
0.000100837
2.63022e-07
0.000100742
2.84015e-07
0.000100638
3.0955e-07
0.000100523
3.40244e-07
0.000100396
3.7683e-07
0.000100253
4.20189e-07
0.000100093
4.71387e-07
9.9912e-05
5.31725e-07
9.97064e-05
6.02803e-07
9.9472e-05
6.86606e-07
9.92039e-05
7.85612e-07
9.88961e-05
9.02951e-07
9.85415e-05
1.0426e-06
9.81313e-05
1.20969e-06
9.7655e-05
1.41088e-06
9.71e-05
1.65491e-06
9.64503e-05
1.9534e-06
9.56866e-05
2.32194e-06
9.47855e-05
2.78156e-06
9.37185e-05
3.36086e-06
9.24524e-05
4.09859e-06
9.09512e-05
5.04667e-06
8.9182e-05
6.27249e-06
8.71296e-05
7.8571e-06
8.48283e-05
9.88192e-06
8.24332e-05
1.23875e-05
8.03506e-05
1.52446e-05
1.77961e-05
7.92315e-05
0.000114037
1.92043e-08
0.000114008
1.12261e-07
0.000113938
2.69342e-07
0.000113821
4.46494e-07
0.000113663
5.9094e-07
0.000113482
6.71425e-07
0.000113295
6.87986e-07
0.000113115
6.61753e-07
0.000112944
6.18381e-07
0.000112785
5.76744e-07
0.000112635
5.45824e-07
0.000112489
5.26929e-07
0.000112347
5.17454e-07
0.000112206
5.13819e-07
0.000112065
5.13027e-07
0.000111925
5.13106e-07
0.000111785
5.12988e-07
0.000111646
5.12213e-07
0.000111507
5.10658e-07
0.000111369
5.08344e-07
0.000111232
5.05334e-07
0.000111096
5.01687e-07
0.000110961
4.97436e-07
0.000110828
4.92589e-07
0.000110697
4.87131e-07
0.000110567
4.81042e-07
0.00011044
4.74293e-07
0.000110315
4.66857e-07
0.000110192
4.5872e-07
0.000110071
4.49882e-07
0.000109953
4.40361e-07
0.000109839
4.30198e-07
0.000109727
4.19455e-07
0.000109618
4.08217e-07
0.000109513
3.96595e-07
0.000109411
3.84723e-07
0.000109312
3.72752e-07
0.000109217
3.60853e-07
0.000109125
3.49215e-07
0.000109035
3.38036e-07
0.000108949
3.27531e-07
0.000108866
3.17926e-07
0.000108784
3.09457e-07
0.000108705
3.02368e-07
0.000108627
2.96912e-07
0.000108549
2.93353e-07
0.000108473
2.91967e-07
0.000108396
2.93046e-07
0.000108317
2.96901e-07
0.000108237
3.03866e-07
0.000108154
3.14307e-07
0.000108067
3.28629e-07
0.000107975
3.47284e-07
0.000107876
3.7079e-07
0.00010777
3.99743e-07
0.000107654
4.34834e-07
0.000107527
4.76877e-07
0.000107387
5.26833e-07
0.000107231
5.85856e-07
0.000107057
6.55328e-07
0.000106862
7.36929e-07
0.000106642
8.32705e-07
0.000106394
9.4517e-07
0.000106112
1.07743e-06
0.000105792
1.23337e-06
0.000105427
1.41784e-06
0.00010501
1.63699e-06
0.000104532
1.89864e-06
0.000103985
2.21281e-06
0.000103356
2.59244e-06
0.000102634
3.05424e-06
0.000101806
3.61979e-06
0.00010086
4.31686e-06
9.97885e-05
5.18046e-06
9.8592e-05
6.25326e-06
9.72911e-05
7.58347e-06
9.59415e-05
9.2168e-06
9.46577e-05
1.11757e-05
9.36403e-05
1.34148e-05
9.31635e-05
1.57313e-05
1.76217e-05
9.33477e-05
0.000122026
2.25804e-08
0.000121998
1.39535e-07
0.000121929
3.38749e-07
0.00012181
5.65257e-07
0.000121649
7.5203e-07
0.000121462
8.58521e-07
0.000121267
8.83651e-07
0.000121076
8.53386e-07
0.000120894
8.00009e-07
0.000120724
7.47652e-07
0.000120562
7.08104e-07
0.000120406
6.83425e-07
0.000120253
6.70597e-07
0.000120103
6.65247e-07
0.000119953
6.63639e-07
0.000119803
6.63273e-07
0.000119655
6.6278e-07
0.000119507
6.61547e-07
0.000119359
6.59385e-07
0.000119213
6.56308e-07
0.000119067
6.52383e-07
0.000118923
6.47674e-07
0.000118781
6.42217e-07
0.000118639
6.3602e-07
0.0001185
6.29066e-07
0.000118363
6.21326e-07
0.000118227
6.12767e-07
0.000118094
6.03356e-07
0.000117963
5.93076e-07
0.000117835
5.81929e-07
0.000117709
5.69941e-07
0.000117587
5.57162e-07
0.000117467
5.43673e-07
0.000117351
5.29587e-07
0.000117238
5.15043e-07
0.000117128
5.0021e-07
0.000117021
4.85283e-07
0.000116917
4.70478e-07
0.000116817
4.56034e-07
0.000116719
4.42206e-07
0.000116625
4.29267e-07
0.000116532
4.17501e-07
0.000116442
4.0721e-07
0.000116354
3.98702e-07
0.000116266
3.92296e-07
0.00011618
3.88329e-07
0.000116093
3.87148e-07
0.000116006
3.89125e-07
0.000115917
3.94648e-07
0.000115826
4.04139e-07
0.000115731
4.18053e-07
0.000115633
4.36897e-07
0.000115528
4.61233e-07
0.000115417
4.91702e-07
0.000115298
5.29034e-07
0.000115169
5.74077e-07
0.000115028
6.2782e-07
0.000114874
6.91428e-07
0.000114704
7.66278e-07
0.000114516
8.5402e-07
0.000114307
9.56628e-07
0.000114074
1.07649e-06
0.000113814
1.2165e-06
0.000113522
1.38018e-06
0.000113194
1.57186e-06
0.000112826
1.79685e-06
0.000112413
2.06173e-06
0.000111948
2.37466e-06
0.000111426
2.74573e-06
0.000110842
3.1875e-06
0.000110191
3.71547e-06
0.000109473
4.34857e-06
0.000108692
5.10949e-06
0.000107859
6.02435e-06
0.000107002
7.12112e-06
0.000106171
8.42528e-06
0.000105448
9.95029e-06
0.000104955
1.16795e-05
0.000104845
1.35355e-05
0.000105249
1.53371e-05
1.67598e-05
0.000106122
0.000130574
2.48615e-08
0.000130549
1.64627e-07
0.000130482
4.05551e-07
0.000130365
6.82358e-07
0.000130204
9.13894e-07
0.000130013
1.04975e-06
0.00012981
1.08679e-06
0.000129608
1.05511e-06
0.000129415
9.93258e-07
0.000129233
9.30724e-07
0.000129059
8.82392e-07
0.000128891
8.51405e-07
0.000128728
8.34585e-07
0.000128567
8.26915e-07
0.000128408
8.23981e-07
0.000128249
8.22777e-07
0.000128091
8.21606e-07
0.000127934
8.19685e-07
0.000127779
8.16749e-07
0.000127624
8.12777e-07
0.00012747
8.0783e-07
0.000127318
8.01971e-07
0.000127167
7.95237e-07
0.000127018
7.87629e-07
0.00012687
7.79132e-07
0.000126725
7.69708e-07
0.000126582
7.59316e-07
0.000126441
7.47923e-07
0.000126302
7.35508e-07
0.000126166
7.22078e-07
0.000126033
7.07665e-07
0.000125902
6.92334e-07
0.000125775
6.76185e-07
0.00012565
6.59353e-07
0.000125529
6.42014e-07
0.00012541
6.24369e-07
0.000125295
6.06658e-07
0.000125183
5.89142e-07
0.000125074
5.7211e-07
0.000124967
5.55874e-07
0.000124863
5.40761e-07
0.000124761
5.27119e-07
0.000124661
5.15308e-07
0.000124563
5.05703e-07
0.000124465
4.98692e-07
0.000124367
4.94678e-07
0.00012427
4.94082e-07
0.000124171
4.97345e-07
0.00012407
5.04936e-07
0.000123967
5.17356e-07
0.000123859
5.35149e-07
0.000123748
5.58909e-07
0.00012363
5.89302e-07
0.000123505
6.27073e-07
0.000123372
6.73073e-07
0.000123229
7.28275e-07
0.000123074
7.93813e-07
0.000122905
8.71003e-07
0.000122721
9.61395e-07
0.00012252
1.06682e-06
0.000122298
1.18943e-06
0.000122055
1.33182e-06
0.000121786
1.49707e-06
0.000121489
1.68885e-06
0.000121161
1.91158e-06
0.000120799
2.17058e-06
0.0001204
2.47221e-06
0.000119962
2.82409e-06
0.000119484
3.23534e-06
0.000118967
3.71671e-06
0.000118413
4.28075e-06
0.000117832
4.94173e-06
0.000117238
5.71521e-06
0.000116657
6.61694e-06
0.000116129
7.66045e-06
0.000115713
8.85259e-06
0.000115489
1.01859e-05
0.000115553
1.16268e-05
0.000116001
1.30996e-05
0.000116878
1.44706e-05
1.5547e-05
0.000118102
0.000139722
2.57634e-08
0.0001397
1.86517e-07
0.000139638
4.67792e-07
0.000139525
7.95109e-07
0.000139366
1.07368e-06
0.000139173
1.24269e-06
0.000138964
1.29584e-06
0.000138753
1.26622e-06
0.000138549
1.19816e-06
0.000138353
1.12644e-06
0.000138167
1.06936e-06
0.000137987
1.03155e-06
0.000137812
1.01e-06
0.000137641
9.99256e-07
0.000137471
9.94348e-07
0.000137303
9.91785e-07
0.000137137
9.89542e-07
0.000136971
9.86636e-07
0.000136807
9.82699e-07
0.000136644
9.77657e-07
0.000136482
9.71553e-07
0.000136321
9.64438e-07
0.000136163
9.56338e-07
0.000136006
9.47258e-07
0.000135851
9.37167e-07
0.000135697
9.26028e-07
0.000135546
9.13794e-07
0.000135398
9.00427e-07
0.000135251
8.85912e-07
0.000135107
8.70256e-07
0.000134966
8.53502e-07
0.000134828
8.3573e-07
0.000134692
8.17059e-07
0.00013456
7.97653e-07
0.00013443
7.77714e-07
0.000134303
7.57486e-07
0.000134179
7.37242e-07
0.000134058
7.17294e-07
0.000133939
6.97981e-07
0.000133823
6.79663e-07
0.000133709
6.62728e-07
0.000133597
6.47579e-07
0.000133486
6.34638e-07
0.000133376
6.24341e-07
0.000133267
6.17139e-07
0.000133158
6.135e-07
0.000133048
6.13911e-07
0.000132936
6.18884e-07
0.000132822
6.28957e-07
0.000132705
6.44704e-07
0.000132585
6.66742e-07
0.000132459
6.95746e-07
0.000132327
7.32463e-07
0.000132187
7.77721e-07
0.000132039
8.32463e-07
0.000131881
8.97754e-07
0.000131712
9.74819e-07
0.00013153
1.06507e-06
0.000131333
1.17015e-06
0.00013112
1.29195e-06
0.000130889
1.43272e-06
0.000130638
1.59503e-06
0.000130366
1.78194e-06
0.00013007
1.99701e-06
0.00012975
2.24439e-06
0.000129404
2.5289e-06
0.000129033
2.85615e-06
0.000128637
3.23256e-06
0.000128219
3.66541e-06
0.000127786
4.16278e-06
0.000127345
4.73341e-06
0.000126913
5.38625e-06
0.000126511
6.12971e-06
0.00012617
6.97035e-06
0.000125933
7.91061e-06
0.000125852
8.94551e-06
0.000125993
1.00578e-05
0.00012642
1.12115e-05
0.000127186
1.23461e-05
0.000128295
1.33728e-05
1.41818e-05
0.000129673
0.00014951
2.50449e-08
0.000149493
2.04316e-07
0.000149437
5.23711e-07
0.000149331
9.00984e-07
0.000149176
1.22857e-06
0.000148984
1.43481e-06
0.000148772
1.50892e-06
0.000148552
1.48571e-06
0.000148336
1.41441e-06
0.000148128
1.33498e-06
0.000147929
1.26944e-06
0.000147737
1.22434e-06
0.00014755
1.19726e-06
0.000147368
1.1826e-06
0.000147188
1.17495e-06
0.00014701
1.1704e-06
0.000146835
1.16659e-06
0.00014666
1.16233e-06
0.000146488
1.15711e-06
0.000146316
1.15079e-06
0.000146147
1.14336e-06
0.000145978
1.13486e-06
0.000145812
1.1253e-06
0.000145647
1.11467e-06
0.000145485
1.10294e-06
0.000145324
1.09006e-06
0.000145166
1.07599e-06
0.000145009
1.06068e-06
0.000144855
1.04412e-06
0.000144704
1.02633e-06
0.000144555
1.00736e-06
0.000144409
9.87305e-07
0.000144265
9.66308e-07
0.000144124
9.44558e-07
0.000143986
9.22286e-07
0.000143851
8.9977e-07
0.000143718
8.77327e-07
0.000143587
8.55308e-07
0.000143459
8.34099e-07
0.000143332
8.14113e-07
0.000143208
7.95785e-07
0.000143085
7.79577e-07
0.000142962
7.65963e-07
0.000142841
7.55436e-07
0.000142719
7.48506e-07
0.000142597
7.457e-07
0.000142474
7.47566e-07
0.000142349
7.54671e-07
0.000142221
7.67616e-07
0.00014209
7.87031e-07
0.000141954
8.13597e-07
0.000141814
8.48045e-07
0.000141667
8.91179e-07
0.000141513
9.43886e-07
0.00014135
1.00716e-06
0.000141178
1.0821e-06
0.000140996
1.16998e-06
0.000140801
1.27222e-06
0.000140594
1.39047e-06
0.000140372
1.52658e-06
0.000140135
1.6827e-06
0.000139882
1.86127e-06
0.000139612
2.06508e-06
0.000139325
2.29728e-06
0.000139021
2.56146e-06
0.000138702
2.86159e-06
0.000138369
3.20209e-06
0.000138028
3.58775e-06
0.000137683
4.02359e-06
0.000137344
4.51476e-06
0.000137025
5.06611e-06
0.000136743
5.68176e-06
0.000136522
6.36423e-06
0.000136392
7.11339e-06
0.000136391
7.92482e-06
0.000136562
8.7878e-06
0.00013695
9.68278e-06
0.000137596
1.05789e-05
0.000138522
1.14325e-05
0.00013972
1.21878e-05
1.2784e-05
0.000141131
0.000159985
2.25561e-08
0.000159972
2.17383e-07
0.000159923
5.7194e-07
0.000159827
9.97899e-07
0.000159679
1.37606e-06
0.000159491
1.62365e-06
0.000159276
1.72404e-06
0.00015905
1.71218e-06
0.000158823
1.64126e-06
0.000158603
1.55609e-06
0.00015839
1.48269e-06
0.000158185
1.42998e-06
0.000157986
1.39661e-06
0.000157793
1.37712e-06
0.000157603
1.36588e-06
0.000157416
1.35863e-06
0.000157231
1.3527e-06
0.000157048
1.34665e-06
0.000156867
1.33982e-06
0.000156688
1.33197e-06
0.00015651
1.32302e-06
0.000156335
1.31299e-06
0.000156161
1.30186e-06
0.000155989
1.28961e-06
0.000155819
1.27619e-06
0.000155651
1.26156e-06
0.000155485
1.24566e-06
0.000155322
1.22846e-06
0.000155161
1.20995e-06
0.000155002
1.19015e-06
0.000154845
1.16913e-06
0.000154691
1.14701e-06
0.00015454
1.12393e-06
0.00015439
1.10013e-06
0.000154244
1.07585e-06
0.000154099
1.05142e-06
0.000153957
1.02718e-06
0.000153817
1.00352e-06
0.000153678
9.80875e-07
0.000153541
9.59697e-07
0.000153406
9.40473e-07
0.000153271
9.23708e-07
0.000153137
9.09926e-07
0.000153003
8.99671e-07
0.000152868
8.93501e-07
0.000152732
8.91993e-07
0.000152595
8.9574e-07
0.000152456
9.0536e-07
0.000152314
9.21496e-07
0.000152168
9.44822e-07
0.000152018
9.76054e-07
0.000151862
1.01596e-06
0.0001517
1.06537e-06
0.000151532
1.12518e-06
0.000151356
1.1964e-06
0.000151171
1.28013e-06
0.000150977
1.37759e-06
0.000150772
1.49015e-06
0.000150557
1.61934e-06
0.000150331
1.76689e-06
0.000150093
1.93469e-06
0.000149843
2.12488e-06
0.000149583
2.33978e-06
0.000149312
2.58197e-06
0.000149034
2.85419e-06
0.00014875
3.15937e-06
0.000148466
3.50051e-06
0.000148187
3.88062e-06
0.000147923
4.30249e-06
0.000147683
4.7685e-06
0.000147484
5.28023e-06
0.000147342
5.83802e-06
0.00014728
6.44034e-06
0.000147324
7.08306e-06
0.000147505
7.75849e-06
0.000147852
8.45441e-06
0.000148396
9.15314e-06
0.000149158
9.83091e-06
0.000150146
1.04581e-05
0.000151346
1.10011e-05
1.14264e-05
0.000152718
0.000171192
1.82659e-08
0.000171184
2.2544e-07
0.000171145
6.11723e-07
0.000171058
1.0845e-06
0.00017092
1.51428e-06
0.000170737
1.80709e-06
0.000170522
1.93917e-06
0.000170291
1.94399e-06
0.000170055
1.8775e-06
0.000169822
1.78903e-06
0.000169597
1.7087e-06
0.000169379
1.6483e-06
0.000169169
1.60797e-06
0.000168964
1.5828e-06
0.000168764
1.56712e-06
0.000168567
1.55643e-06
0.000168374
1.54776e-06
0.000168182
1.53945e-06
0.000167994
1.53064e-06
0.000167807
1.52098e-06
0.000167622
1.51032e-06
0.000167439
1.4986e-06
0.000167258
1.48579e-06
0.000167079
1.47184e-06
0.000166902
1.4567e-06
0.000166727
1.44031e-06
0.000166554
1.42263e-06
0.000166383
1.40362e-06
0.000166215
1.38328e-06
0.000166049
1.36164e-06
0.000165885
1.33878e-06
0.000165723
1.31484e-06
0.000165563
1.28999e-06
0.000165406
1.26448e-06
0.00016525
1.23859e-06
0.000165097
1.21266e-06
0.000164945
1.18708e-06
0.000164794
1.16227e-06
0.000164645
1.1387e-06
0.000164497
1.11687e-06
0.00016435
1.09728e-06
0.000164203
1.08049e-06
0.000164057
1.06707e-06
0.00016391
1.05759e-06
0.000163761
1.05266e-06
0.000163612
1.05288e-06
0.000163461
1.05888e-06
0.000163307
1.07131e-06
0.00016315
1.09084e-06
0.000162989
1.11816e-06
0.000162824
1.154e-06
0.000162654
1.19913e-06
0.000162479
1.25437e-06
0.000162297
1.3206e-06
0.000162109
1.39878e-06
0.000161913
1.48993e-06
0.00016171
1.59518e-06
0.000161498
1.71576e-06
0.000161279
1.85301e-06
0.000161053
2.00837e-06
0.000160819
2.18342e-06
0.000160579
2.37982e-06
0.000160334
2.59934e-06
0.000160087
2.84379e-06
0.000159842
3.11502e-06
0.000159602
3.41479e-06
0.000159373
3.74473e-06
0.000159162
4.10615e-06
0.00015898
4.49991e-06
0.000158838
4.92618e-06
0.000158749
5.38412e-06
0.000158731
5.87161e-06
0.000158802
6.38482e-06
0.000158982
6.91781e-06
0.000159293
7.46213e-06
0.000159756
8.00651e-06
0.000160388
8.53664e-06
0.000161198
9.03542e-06
0.000162187
9.48361e-06
0.000163342
9.86132e-06
1.01503e-05
0.000164633
0.000183185
1.22785e-08
0.000183182
2.28594e-07
0.000183151
6.42984e-07
0.000183075
1.16027e-06
0.000182947
1.64216e-06
0.000182771
1.98357e-06
0.000182558
2.15246e-06
0.000182323
2.17928e-06
0.00018208
2.12157e-06
0.000181836
2.03258e-06
0.000181599
1.94663e-06
0.000181369
1.87875e-06
0.000181147
1.83101e-06
0.000180932
1.79941e-06
0.000180721
1.7785e-06
0.000180516
1.76363e-06
0.000180313
1.75163e-06
0.000180114
1.74056e-06
0.000179917
1.72941e-06
0.000179723
1.71765e-06
0.00017953
1.70505e-06
0.00017934
1.69149e-06
0.000179152
1.6769e-06
0.000178966
1.66119e-06
0.000178782
1.64432e-06
0.000178601
1.62621e-06
0.000178421
1.60681e-06
0.000178243
1.5861e-06
0.000178068
1.56409e-06
0.000177894
1.54081e-06
0.000177722
1.51638e-06
0.000177553
1.49092e-06
0.000177385
1.46465e-06
0.000177219
1.43782e-06
0.000177054
1.41075e-06
0.000176891
1.3838e-06
0.00017673
1.35739e-06
0.000176569
1.33196e-06
0.000176409
1.30801e-06
0.00017625
1.28606e-06
0.000176091
1.26666e-06
0.000175931
1.25039e-06
0.000175772
1.23783e-06
0.000175611
1.22961e-06
0.000175449
1.22633e-06
0.000175286
1.22863e-06
0.00017512
1.23715e-06
0.000174952
1.25255e-06
0.00017478
1.2755e-06
0.000174605
1.3067e-06
0.000174426
1.34684e-06
0.000174243
1.39667e-06
0.000174054
1.45696e-06
0.000173861
1.52852e-06
0.000173662
1.61222e-06
0.000173458
1.70894e-06
0.000173249
1.81966e-06
0.000173035
1.94539e-06
0.000172816
2.08719e-06
0.000172594
2.24617e-06
0.00017237
2.42347e-06
0.000172145
2.62024e-06
0.000171923
2.8376e-06
0.000171706
3.07659e-06
0.000171499
3.33813e-06
0.000171308
3.62292e-06
0.000171137
3.93136e-06
0.000170996
4.2634e-06
0.000170894
4.61842e-06
0.000170841
4.99503e-06
0.000170851
5.39093e-06
0.000170936
5.80269e-06
0.000171111
6.22556e-06
0.000171392
6.65333e-06
0.000171792
7.07822e-06
0.000172324
7.49091e-06
0.000172996
7.88066e-06
0.000173811
8.23572e-06
0.000174767
8.54394e-06
0.00017585
8.79372e-06
8.9752e-06
0.000177041
0.000196017
4.78963e-09
0.000196019
2.27302e-07
0.000195995
6.66299e-07
0.00019593
1.22558e-06
0.000195813
1.75947e-06
0.000195645
2.15214e-06
0.000195435
2.36238e-06
0.000195199
2.41623e-06
0.000194949
2.37161e-06
0.000194697
2.28511e-06
0.000194449
2.19519e-06
0.000194208
2.12037e-06
0.000193975
2.06508e-06
0.000193749
2.02652e-06
0.000193529
1.9997e-06
0.000193314
1.98002e-06
0.000193103
1.96411e-06
0.000192896
1.94983e-06
0.000192691
1.93596e-06
0.00019249
1.92183e-06
0.00019229
1.9071e-06
0.000192093
1.89157e-06
0.000191898
1.8751e-06
0.000191705
1.85762e-06
0.000191515
1.83902e-06
0.000191326
1.81925e-06
0.000191139
1.79824e-06
0.000190954
1.77599e-06
0.000190771
1.75251e-06
0.00019059
1.72785e-06
0.000190411
1.70212e-06
0.000190233
1.6755e-06
0.000190057
1.64819e-06
0.000189882
1.62049e-06
0.000189708
1.59271e-06
0.000189535
1.56524e-06
0.000189363
1.53852e-06
0.000189192
1.51301e-06
0.000189021
1.48922e-06
0.00018885
1.4677e-06
0.000188678
1.44902e-06
0.000188506
1.43376e-06
0.000188333
1.42253e-06
0.000188159
1.41596e-06
0.000187983
1.41466e-06
0.000187805
1.41926e-06
0.000187625
1.43042e-06
0.000187443
1.44877e-06
0.000187257
1.47497e-06
0.000187069
1.50965e-06
0.000186877
1.5535e-06
0.000186681
1.60717e-06
0.000186482
1.67136e-06
0.000186279
1.74676e-06
0.000186073
1.83409e-06
0.000185864
1.93408e-06
0.000185652
2.04747e-06
0.000185439
2.17501e-06
0.000185226
2.31743e-06
0.000185013
2.47545e-06
0.000184803
2.64976e-06
0.0001846
2.84096e-06
0.000184405
3.04953e-06
0.000184223
3.2758e-06
0.000184058
3.51989e-06
0.000183917
3.78159e-06
0.000183805
4.06035e-06
0.000183731
4.35514e-06
0.000183702
4.66437e-06
0.000183729
4.98579e-06
0.000183821
5.31639e-06
0.000183988
5.65232e-06
0.000184242
5.98885e-06
0.000184592
6.32036e-06
0.000185047
6.6404e-06
0.000185614
6.94179e-06
0.000186294
7.21689e-06
0.000187089
7.45792e-06
0.000187992
7.65737e-06
0.000188994
7.80861e-06
7.90642e-06
0.00019008
0.000209748
-3.93144e-09
0.000209753
2.22268e-07
0.000209737
6.82718e-07
0.000209681
1.28145e-06
0.000209574
1.86677e-06
0.000209414
2.31253e-06
0.000209209
2.56782e-06
0.000208972
2.65314e-06
0.000208719
2.62569e-06
0.000208459
2.54478e-06
0.000208203
2.4528e-06
0.000207952
2.37195e-06
0.000207709
2.30926e-06
0.000207473
2.26347e-06
0.000207244
2.23029e-06
0.00020702
2.20528e-06
0.000206801
2.18498e-06
0.000206585
2.16708e-06
0.000206373
2.15018e-06
0.000206164
2.13344e-06
0.000205958
2.11641e-06
0.000205754
2.0988e-06
0.000205552
2.08042e-06
0.000205352
2.06116e-06
0.000205154
2.0409e-06
0.000204959
2.01956e-06
0.000204765
1.99711e-06
0.000204573
1.97351e-06
0.000204382
1.94881e-06
0.000204193
1.92306e-06
0.000204006
1.89639e-06
0.00020382
1.86898e-06
0.000203635
1.84107e-06
0.00020345
1.81294e-06
0.000203267
1.78494e-06
0.000203084
1.75746e-06
0.000202901
1.73095e-06
0.000202718
1.70588e-06
0.000202535
1.68278e-06
0.000202352
1.66219e-06
0.000202168
1.64469e-06
0.000201983
1.63087e-06
0.000201796
1.62133e-06
0.000201608
1.61668e-06
0.000201419
1.61754e-06
0.000201227
1.62452e-06
0.000201034
1.63824e-06
0.000200838
1.65929e-06
0.000200639
1.68828e-06
0.000200438
1.72581e-06
0.000200235
1.77244e-06
0.000200029
1.82876e-06
0.000199821
1.89532e-06
0.000199612
1.97269e-06
0.000199401
2.06139e-06
0.000199191
2.16194e-06
0.00019898
2.27483e-06
0.000198772
2.40052e-06
0.000198568
2.53939e-06
0.000198369
2.69178e-06
0.000198179
2.85791e-06
0.000198
3.03787e-06
0.000197836
3.23161e-06
0.000197691
3.43883e-06
0.00019757
3.65902e-06
0.000197479
3.89132e-06
0.000197423
4.13454e-06
0.00019741
4.38706e-06
0.000197446
4.64678e-06
0.000197539
4.91112e-06
0.000197697
5.17694e-06
0.000197927
5.44056e-06
0.000198236
5.69781e-06
0.000198631
5.94403e-06
0.000199116
6.17422e-06
0.000199692
6.38316e-06
0.000200362
6.56565e-06
0.000201121
6.71669e-06
0.000201964
6.83178e-06
0.000202884
6.90722e-06
6.94037e-06
0.000203867
0.00022444
-1.36012e-08
0.000224448
2.14298e-07
0.000224437
6.9356e-07
0.00022439
1.32938e-06
0.000224291
1.96515e-06
0.000224139
2.46503e-06
0.000223939
2.76813e-06
0.000223704
2.88857e-06
0.000223448
2.88198e-06
0.000223184
2.80968e-06
0.00022292
2.71774e-06
0.000222661
2.63204e-06
0.000222409
2.56245e-06
0.000222164
2.50946e-06
0.000221926
2.46969e-06
0.000221694
2.43901e-06
0.000221467
2.41397e-06
0.000221244
2.39215e-06
0.000221024
2.37195e-06
0.000220808
2.35242e-06
0.000220594
2.33297e-06
0.000220383
2.31323e-06
0.000220174
2.29295e-06
0.000219968
2.27196e-06
0.000219763
2.25015e-06
0.00021956
2.22741e-06
0.000219358
2.20371e-06
0.000219159
2.17902e-06
0.00021896
2.15339e-06
0.000218763
2.12689e-06
0.000218567
2.09965e-06
0.000218372
2.07187e-06
0.000218177
2.04379e-06
0.000217983
2.01571e-06
0.000217789
1.98797e-06
0.000217596
1.96097e-06
0.000217402
1.93516e-06
0.000217207
1.91102e-06
0.000217012
1.88906e-06
0.000216816
1.86983e-06
0.000216619
1.85388e-06
0.000216421
1.8418e-06
0.000216221
1.83417e-06
0.00021602
1.83156e-06
0.000215817
1.83458e-06
0.000215613
1.84379e-06
0.000215406
1.85975e-06
0.000215198
1.883e-06
0.000214988
1.91408e-06
0.000214776
1.95347e-06
0.000214563
2.00167e-06
0.00021435
2.0591e-06
0.000214136
2.12619e-06
0.000213923
2.20331e-06
0.000213711
2.29081e-06
0.000213502
2.38895e-06
0.000213297
2.49798e-06
0.000213098
2.61805e-06
0.000212907
2.74921e-06
0.000212726
2.89144e-06
0.000212559
3.04455e-06
0.000212407
3.20823e-06
0.000212276
3.38195e-06
0.000212169
3.56501e-06
0.000212091
3.75643e-06
0.000212047
3.95495e-06
0.000212042
4.15904e-06
0.000212082
4.36681e-06
0.000212172
4.57605e-06
0.000212319
4.7842e-06
0.000212527
4.98837e-06
0.000212802
5.18538e-06
0.000213147
5.3718e-06
0.000213567
5.54403e-06
0.000214062
5.6984e-06
0.000214633
5.8313e-06
0.000215279
5.93932e-06
0.000215995
6.01935e-06
0.000216777
6.06883e-06
0.000217617
6.08578e-06
6.06897e-06
0.000218508
0.000240161
-2.39603e-08
0.000240171
2.04195e-07
0.000240165
7.00198e-07
0.000240123
1.37102e-06
0.000240033
2.05603e-06
0.000239888
2.61033e-06
0.000239693
2.96307e-06
0.00023946
3.12149e-06
0.000239204
3.13887e-06
0.000238936
3.07798e-06
0.000238667
2.98824e-06
0.000238401
2.89912e-06
0.000238141
2.82341e-06
0.000237888
2.76355e-06
0.000237642
2.7172e-06
0.000237402
2.68071e-06
0.000237167
2.65075e-06
0.000236937
2.6248e-06
0.00023671
2.60117e-06
0.000236486
2.57874e-06
0.000236266
2.55682e-06
0.000236047
2.53495e-06
0.000235831
2.51283e-06
0.000235617
2.49024e-06
0.000235405
2.46704e-06
0.000235195
2.44312e-06
0.000234986
2.41843e-06
0.000234778
2.39295e-06
0.000234571
2.36673e-06
0.000234365
2.33985e-06
0.00023416
2.31245e-06
0.000233955
2.28473e-06
0.000233751
2.25692e-06
0.000233546
2.22934e-06
0.000233341
2.20231e-06
0.000233136
2.17625e-06
0.000232931
2.15158e-06
0.000232724
2.12877e-06
0.000232517
2.10831e-06
0.000232309
2.09074e-06
0.000232099
2.07658e-06
0.000231888
2.06639e-06
0.000231675
2.06071e-06
0.000231461
2.06008e-06
0.000231246
2.06503e-06
0.000231029
2.07608e-06
0.00023081
2.09372e-06
0.000230591
2.1184e-06
0.000230372
2.15056e-06
0.000230152
2.19058e-06
0.000229932
2.2388e-06
0.000229713
2.29554e-06
0.000229497
2.36103e-06
0.000229283
2.43547e-06
0.000229073
2.51899e-06
0.00022887
2.61164e-06
0.000228674
2.71341e-06
0.000228487
2.82417e-06
0.000228312
2.9437e-06
0.000228152
3.07164e-06
0.000228009
3.20753e-06
0.000227887
3.3507e-06
0.000227789
3.50036e-06
0.000227719
3.65548e-06
0.000227681
3.81486e-06
0.000227679
3.97706e-06
0.000227719
4.14043e-06
0.000227803
4.3031e-06
0.000227937
4.46296e-06
0.000228124
4.61772e-06
0.000228368
4.76494e-06
0.000228672
4.90203e-06
0.000229039
5.02635e-06
0.000229468
5.13527e-06
0.000229961
5.22622e-06
0.000230516
5.29681e-06
0.000231131
5.3449e-06
0.000231802
5.36868e-06
0.000232524
5.36676e-06
0.000233291
5.3382e-06
5.28255e-06
0.000234098
0.000256983
-3.47897e-08
0.000256994
1.92671e-07
0.000256991
7.03898e-07
0.000256954
1.40798e-06
0.000256869
2.14091e-06
0.000256731
2.74936e-06