/*--------------------------------*- C++ -*----------------------------------*\
| =========                 |                                                 |
| \\      /  F ield         | OpenFOAM: The Open Source CFD Toolbox           |
|  \\    /   O peration     | Version:  2106                                  |
|   \\  /    A nd           | Website:  www.openfoam.com                      |
|    \\/     M anipulation  |                                                 |
\*---------------------------------------------------------------------------*/
FoamFile
{
    version     2.0;
    format      ascii;
    arch        "LSB;label=32;scalar=64";
    class       volScalarField;
    location    "0.6";
    object      T;
}
// * * * * * * * * * * * * * * * * * * * * * * * * * * * * * * * * * * * * * //

dimensions      [0 0 0 1 0 0 0];

internalField   nonuniform List<scalar> 
12013
(
300
300
300
300
300
300
300.001
300.001
300.001
300.001
300.001
300.002
300.002
300.003
300.004
300.004
300.005
300.006
300.008
300.009
300.011
300.013
300.015
300.018
300.021
300.024
300.027
300.031
300.036
300.041
300.046
300.052
300.059
300.066
300.074
300.082
300.091
300.101
300.112
300.123
300.136
300.149
300.163
300.178
300.194
300.211
300.229
300.248
300.268
300.289
300.312
300.335
300.36
300.386
300.413
300.442
300.472
300.503
300.536
300.57
300.606
300.644
300.683
300.724
300.767
300.811
300.858
300.907
300.958
301.012
301.068
301.128
301.19
301.257
301.328
301.403
301.485
301.574
301.673
301.787
301.924
300
300
300
300
300
300
300.001
300.001
300.001
300.001
300.001
300.002
300.002
300.003
300.004
300.004
300.005
300.006
300.008
300.009
300.011
300.013
300.015
300.018
300.021
300.024
300.027
300.031
300.036
300.041
300.046
300.052
300.059
300.066
300.074
300.082
300.091
300.101
300.112
300.123
300.136
300.149
300.163
300.178
300.194
300.211
300.229
300.248
300.268
300.289
300.311
300.335
300.36
300.386
300.413
300.442
300.472
300.503
300.536
300.57
300.606
300.643
300.682
300.723
300.766
300.81
300.857
300.906
300.957
301.01
301.067
301.126
301.188
301.254
301.324
301.398
301.479
301.566
301.661
301.766
301.882
300
300
300
300
300
300
300.001
300.001
300.001
300.001
300.001
300.002
300.002
300.003
300.004
300.004
300.005
300.006
300.008
300.009
300.011
300.013
300.015
300.018
300.021
300.024
300.027
300.031
300.036
300.041
300.046
300.052
300.059
300.066
300.074
300.082
300.091
300.101
300.112
300.123
300.136
300.149
300.163
300.178
300.194
300.211
300.229
300.248
300.268
300.289
300.311
300.335
300.359
300.385
300.412
300.441
300.471
300.502
300.535
300.569
300.605
300.642
300.681
300.722
300.764
300.809
300.855
300.903
300.954
301.007
301.063
301.121
301.182
301.247
301.316
301.388
301.466
301.548
301.637
301.731
301.829
300
300
300
300
300
300
300.001
300.001
300.001
300.001
300.001
300.002
300.002
300.003
300.004
300.004
300.005
300.006
300.008
300.009
300.011
300.013
300.015
300.018
300.021
300.024
300.027
300.031
300.036
300.041
300.046
300.052
300.059
300.066
300.074
300.082
300.091
300.101
300.112
300.123
300.135
300.148
300.162
300.177
300.193
300.21
300.228
300.247
300.267
300.288
300.31
300.334
300.358
300.384
300.411
300.44
300.47
300.501
300.533
300.567
300.603
300.64
300.679
300.719
300.761
300.805
300.851
300.899
300.949
301.001
301.056
301.114
301.174
301.237
301.303
301.373
301.446
301.523
301.604
301.687
301.771
300
300
300
300
300
300
300.001
300.001
300.001
300.001
300.001
300.002
300.002
300.003
300.004
300.004
300.005
300.006
300.008
300.009
300.011
300.013
300.015
300.018
300.02
300.024
300.027
300.031
300.036
300.041
300.046
300.052
300.058
300.066
300.073
300.082
300.091
300.101
300.111
300.123
300.135
300.148
300.162
300.177
300.193
300.21
300.227
300.246
300.266
300.287
300.309
300.333
300.357
300.383
300.41
300.438
300.468
300.499
300.531
300.565
300.6
300.637
300.675
300.715
300.757
300.8
300.846
300.893
300.942
300.994
301.047
301.103
301.161
301.222
301.286
301.352
301.42
301.492
301.565
301.639
301.712
300
300
300
300
300
300
300.001
300.001
300.001
300.001
300.001
300.002
300.002
300.003
300.004
300.004
300.005
300.006
300.008
300.009
300.011
300.013
300.015
300.018
300.02
300.024
300.027
300.031
300.036
300.04
300.046
300.052
300.058
300.065
300.073
300.082
300.091
300.1
300.111
300.122
300.135
300.148
300.162
300.176
300.192
300.209
300.227
300.245
300.265
300.286
300.308
300.331
300.356
300.381
300.408
300.436
300.465
300.496
300.528
300.562
300.597
300.633
300.671
300.71
300.751
300.794
300.839
300.885
300.933
300.983
301.035
301.089
301.145
301.203
301.263
301.326
301.389
301.455
301.521
301.587
301.652
300
300
300
300
300
300
300.001
300.001
300.001
300.001
300.001
300.002
300.002
300.003
300.004
300.004
300.005
300.006
300.008
300.009
300.011
300.013
300.015
300.018
300.02
300.024
300.027
300.031
300.035
300.04
300.046
300.052
300.058
300.065
300.073
300.081
300.09
300.1
300.111
300.122
300.134
300.147
300.161
300.176
300.191
300.208
300.226
300.244
300.264
300.285
300.306
300.329
300.354
300.379
300.405
300.433
300.462
300.493
300.524
300.557
300.592
300.627
300.665
300.704
300.744
300.786
300.829
300.874
300.921
300.969
301.019
301.071
301.125
301.18
301.237
301.295
301.354
301.414
301.474
301.533
301.592
300
300
300
300
300
300
300.001
300.001
300.001
300.001
300.001
300.002
300.002
300.003
300.004
300.004
300.005
300.006
300.008
300.009
300.011
300.013
300.015
300.017
300.02
300.023
300.027
300.031
300.035
300.04
300.046
300.051
300.058
300.065
300.073
300.081
300.09
300.1
300.11
300.121
300.133
300.146
300.16
300.175
300.19
300.207
300.224
300.243
300.262
300.283
300.304
300.327
300.351
300.376
300.402
300.43
300.458
300.488
300.519
300.552
300.586
300.621
300.657
300.695
300.734
300.775
300.817
300.861
300.906
300.953
301.001
301.05
301.101
301.153
301.206
301.26
301.314
301.369
301.423
301.477
301.53
300
300
300
300
300
300
300.001
300.001
300.001
300.001
300.001
300.002
300.002
300.003
300.004
300.004
300.005
300.006
300.008
300.009
300.011
300.013
300.015
300.017
300.02
300.023
300.027
300.031
300.035
300.04
300.045
300.051
300.057
300.064
300.072
300.08
300.089
300.099
300.109
300.12
300.132
300.145
300.159
300.173
300.189
300.205
300.222
300.241
300.26
300.28
300.302
300.324
300.348
300.372
300.398
300.425
300.453
300.483
300.513
300.545
300.578
300.612
300.648
300.685
300.723
300.762
300.803
300.845
300.889
300.933
300.979
301.025
301.073
301.122
301.171
301.221
301.271
301.321
301.371
301.419
301.467
300
300
300
300
300
300
300.001
300.001
300.001
300.001
300.001
300.002
300.002
300.003
300.004
300.004
300.005
300.006
300.008
300.009
300.011
300.013
300.015
300.017
300.02
300.023
300.027
300.031
300.035
300.04
300.045
300.051
300.057
300.064
300.071
300.08
300.088
300.098
300.108
300.119
300.131
300.144
300.157
300.172
300.187
300.203
300.22
300.238
300.257
300.277
300.298
300.32
300.343
300.368
300.393
300.419
300.447
300.476
300.506
300.537
300.569
300.602
300.637
300.672
300.709
300.747
300.786
300.827
300.868
300.91
300.953
300.997
301.042
301.087
301.133
301.179
301.225
301.271
301.316
301.36
301.404
300
300
300
300
300
300
300.001
300.001
300.001
300.001
300.001
300.002
300.002
300.003
300.003
300.004
300.005
300.006
300.008
300.009
300.011
300.012
300.015
300.017
300.02
300.023
300.026
300.03
300.035
300.039
300.044
300.05
300.056
300.063
300.071
300.079
300.088
300.097
300.107
300.118
300.13
300.142
300.155
300.17
300.185
300.2
300.217
300.235
300.254
300.273
300.294
300.316
300.338
300.362
300.387
300.413
300.44
300.468
300.497
300.527
300.558
300.59
300.623
300.658
300.693
300.73
300.767
300.805
300.844
300.884
300.925
300.966
301.008
301.05
301.092
301.134
301.176
301.218
301.259
301.3
301.339
300
300
300
300
300
300
300.001
300.001
300.001
300.001
300.001
300.002
300.002
300.003
300.003
300.004
300.005
300.006
300.007
300.009
300.01
300.012
300.014
300.017
300.02
300.023
300.026
300.03
300.034
300.039
300.044
300.05
300.056
300.063
300.07
300.078
300.087
300.096
300.106
300.117
300.128
300.14
300.153
300.167
300.182
300.198
300.214
300.231
300.25
300.269
300.289
300.31
300.332
300.356
300.38
300.405
300.431
300.458
300.486
300.515
300.545
300.576
300.608
300.641
300.675
300.709
300.745
300.781
300.818
300.855
300.893
300.931
300.97
301.009
301.048
301.086
301.125
301.163
301.201
301.238
301.274
300
300
300
300
300
300
300.001
300.001
300.001
300.001
300.001
300.002
300.002
300.003
300.003
300.004
300.005
300.006
300.007
300.009
300.01
300.012
300.014
300.017
300.019
300.022
300.026
300.03
300.034
300.038
300.043
300.049
300.055
300.062
300.069
300.077
300.085
300.094
300.104
300.115
300.126
300.138
300.151
300.164
300.179
300.194
300.21
300.227
300.245
300.264
300.283
300.304
300.325
300.348
300.371
300.396
300.421
300.447
300.474
300.502
300.531
300.56
300.591
300.622
300.654
300.687
300.72
300.754
300.788
300.823
300.858
300.894
300.93
300.965
301.001
301.037
301.072
301.107
301.141
301.174
301.207
300
300
300
300
300
300
300
300.001
300.001
300.001
300.001
300.002
300.002
300.003
300.003
300.004
300.005
300.006
300.007
300.009
300.01
300.012
300.014
300.016
300.019
300.022
300.025
300.029
300.033
300.038
300.043
300.048
300.054
300.061
300.068
300.075
300.084
300.093
300.102
300.113
300.124
300.135
300.148
300.161
300.175
300.19
300.206
300.222
300.24
300.258
300.277
300.297
300.317
300.339
300.361
300.385
300.409
300.434
300.46
300.486
300.514
300.542
300.571
300.6
300.63
300.661
300.692
300.724
300.756
300.789
300.821
300.854
300.887
300.92
300.952
300.985
301.017
301.048
301.08
301.11
301.14
300
300
300
300
300
300
300
300.001
300.001
300.001
300.001
300.002
300.002
300.003
300.003
300.004
300.005
300.006
300.007
300.008
300.01
300.012
300.014
300.016
300.019
300.022
300.025
300.029
300.033
300.037
300.042
300.047
300.053
300.059
300.066
300.074
300.082
300.091
300.1
300.11
300.121
300.132
300.144
300.157
300.171
300.185
300.2
300.216
300.233
300.251
300.269
300.288
300.308
300.329
300.35
300.373
300.396
300.42
300.444
300.469
300.495
300.522
300.549
300.577
300.605
300.633
300.662
300.692
300.722
300.751
300.781
300.812
300.842
300.872
300.901
300.931
300.96
300.989
301.017
301.045
301.072
300
300
300
300
300
300
300
300.001
300.001
300.001
300.001
300.002
300.002
300.003
300.003
300.004
300.005
300.006
300.007
300.008
300.01
300.012
300.014
300.016
300.018
300.021
300.024
300.028
300.032
300.036
300.041
300.046
300.052
300.058
300.065
300.072
300.08
300.088
300.098
300.107
300.118
300.129
300.14
300.153
300.166
300.18
300.194
300.21
300.226
300.243
300.26
300.279
300.298
300.317
300.338
300.359
300.381
300.403
300.426
300.45
300.475
300.499
300.525
300.551
300.577
300.603
300.63
300.657
300.685
300.712
300.74
300.767
300.795
300.822
300.849
300.876
300.902
300.928
300.954
300.979
301.004
300
300
300
300
300
300
300
300.001
300.001
300.001
300.001
300.002
300.002
300.003
300.003
300.004
300.005
300.006
300.007
300.008
300.01
300.011
300.013
300.015
300.018
300.021
300.024
300.027
300.031
300.035
300.04
300.045
300.05
300.056
300.063
300.07
300.078
300.086
300.095
300.104
300.114
300.125
300.136
300.148
300.16
300.174
300.188
300.202
300.218
300.234
300.25
300.268
300.286
300.305
300.324
300.344
300.364
300.385
300.407
300.429
300.452
300.475
300.499
300.523
300.547
300.571
300.596
300.621
300.646
300.671
300.696
300.721
300.746
300.77
300.795
300.819
300.843
300.867
300.89
300.913
300.935
300
300
300
300
300
300
300
300.001
300.001
300.001
300.001
300.002
300.002
300.003
300.003
300.004
300.005
300.006
300.007
300.008
300.009
300.011
300.013
300.015
300.017
300.02
300.023
300.026
300.03
300.034
300.039
300.044
300.049
300.055
300.061
300.068
300.075
300.083
300.091
300.1
300.11
300.12
300.131
300.142
300.154
300.167
300.18
300.194
300.209
300.224
300.239
300.256
300.273
300.29
300.308
300.327
300.346
300.366
300.386
300.407
300.428
300.449
300.471
300.493
300.515
300.537
300.56
300.582
300.605
300.628
300.651
300.673
300.696
300.718
300.74
300.762
300.784
300.805
300.826
300.846
300.866
300
300
300
300
300
300
300
300.001
300.001
300.001
300.001
300.002
300.002
300.002
300.003
300.004
300.004
300.005
300.006
300.008
300.009
300.011
300.012
300.014
300.017
300.019
300.022
300.025
300.029
300.033
300.037
300.042
300.047
300.053
300.059
300.065
300.072
300.08
300.088
300.096
300.105
300.115
300.125
300.136
300.147
300.159
300.172
300.185
300.198
300.213
300.227
300.243
300.259
300.275
300.292
300.309
300.327
300.345
300.363
300.382
300.402
300.421
300.441
300.461
300.481
300.502
300.522
300.542
300.563
300.584
300.604
300.624
300.645
300.665
300.684
300.704
300.723
300.742
300.761
300.78
300.798
300
300
300
300
300
300
300
300.001
300.001
300.001
300.001
300.002
300.002
300.002
300.003
300.004
300.004
300.005
300.006
300.007
300.009
300.01
300.012
300.014
300.016
300.019
300.021
300.024
300.028
300.032
300.036
300.04
300.045
300.05
300.056
300.062
300.069
300.076
300.083
300.091
300.1
300.109
300.119
300.129
300.14
300.151
300.162
300.175
300.187
300.201
300.214
300.228
300.243
300.258
300.274
300.29
300.306
300.323
300.339
300.357
300.374
300.392
300.41
300.428
300.446
300.465
300.483
300.501
300.52
300.538
300.557
300.575
300.593
300.611
300.628
300.646
300.663
300.68
300.697
300.713
300.729
300
300
300
300
300
300
300
300.001
300.001
300.001
300.001
300.001
300.002
300.002
300.003
300.003
300.004
300.005
300.006
300.007
300.008
300.01
300.011
300.013
300.015
300.018
300.02
300.023
300.026
300.03
300.034
300.038
300.043
300.048
300.053
300.059
300.065
300.072
300.079
300.086
300.094
300.103
300.112
300.121
300.131
300.142
300.152
300.164
300.175
300.188
300.2
300.213
300.227
300.24
300.255
300.269
300.284
300.299
300.314
300.33
300.346
300.362
300.378
300.394
300.41
300.427
300.443
300.46
300.476
300.492
300.509
300.525
300.541
300.557
300.572
300.588
300.603
300.618
300.633
300.648
300.662
300
300
300
300
300
300
300
300
300.001
300.001
300.001
300.001
300.002
300.002
300.003
300.003
300.004
300.005
300.006
300.007
300.008
300.009
300.011
300.013
300.015
300.017
300.019
300.022
300.025
300.028
300.032
300.036
300.04
300.045
300.05
300.055
300.061
300.067
300.074
300.081
300.088
300.096
300.104
300.113
300.122
300.132
300.142
300.152
300.163
300.174
300.185
300.197
300.209
300.222
300.235
300.248
300.261
300.274
300.288
300.302
300.316
300.331
300.345
300.359
300.374
300.388
300.403
300.418
300.432
300.446
300.461
300.475
300.489
300.503
300.517
300.531
300.544
300.557
300.57
300.583
300.596
300
300
300
300
300
300
300
300
300.001
300.001
300.001
300.001
300.002
300.002
300.002
300.003
300.004
300.004
300.005
300.006
300.007
300.009
300.01
300.012
300.014
300.016
300.018
300.021
300.023
300.026
300.03
300.033
300.037
300.042
300.046
300.051
300.057
300.062
300.068
300.075
300.082
300.089
300.096
300.104
300.113
300.121
300.13
300.14
300.149
300.159
300.17
300.18
300.191
300.202
300.214
300.225
300.237
300.249
300.262
300.274
300.286
300.299
300.312
300.324
300.337
300.35
300.363
300.375
300.388
300.401
300.413
300.426
300.438
300.45
300.462
300.474
300.486
300.497
300.509
300.52
300.531
300
300
300
300
300
300
300
300
300.001
300.001
300.001
300.001
300.001
300.002
300.002
300.003
300.003
300.004
300.005
300.006
300.007
300.008
300.009
300.011
300.013
300.015
300.017
300.019
300.022
300.024
300.028
300.031
300.035
300.038
300.043
300.047
300.052
300.057
300.063
300.069
300.075
300.081
300.088
300.095
300.103
300.11
300.118
300.127
300.135
300.144
300.154
300.163
300.173
300.183
300.193
300.203
300.213
300.224
300.235
300.245
300.256
300.267
300.278
300.29
300.301
300.312
300.323
300.334
300.345
300.356
300.367
300.377
300.388
300.399
300.409
300.419
300.429
300.439
300.449
300.459
300.468
300
300
300
300
300
300
300
300
300.001
300.001
300.001
300.001
300.001
300.002
300.002
300.003
300.003
300.004
300.004
300.005
300.006
300.007
300.009
300.01
300.012
300.013
300.015
300.017
300.02
300.022
300.025
300.028
300.031
300.035
300.039
300.043
300.047
300.052
300.057
300.062
300.068
300.073
300.079
300.086
300.092
300.099
300.106
300.114
300.121
300.129
300.137
300.145
300.154
300.163
300.171
300.18
300.189
300.199
300.208
300.217
300.227
300.236
300.246
300.255
300.265
300.274
300.284
300.293
300.303
300.312
300.321
300.331
300.34
300.349
300.358
300.366
300.375
300.384
300.392
300.4
300.408
300
300
300
300
300
300
300
300
300
300.001
300.001
300.001
300.001
300.002
300.002
300.002
300.003
300.003
300.004
300.005
300.006
300.007
300.008
300.009
300.01
300.012
300.014
300.016
300.018
300.02
300.023
300.025
300.028
300.031
300.035
300.038
300.042
300.046
300.051
300.055
300.06
300.065
300.071
300.076
300.082
300.088
300.094
300.101
300.107
300.114
300.121
300.128
300.135
300.143
300.15
300.158
300.166
300.174
300.182
300.189
300.198
300.206
300.214
300.222
300.23
300.238
300.246
300.254
300.262
300.27
300.278
300.286
300.293
300.301
300.309
300.316
300.323
300.331
300.338
300.345
300.352
300
300
300
300
300
300
300
300
300
300.001
300.001
300.001
300.001
300.001
300.002
300.002
300.002
300.003
300.004
300.004
300.005
300.006
300.007
300.008
300.009
300.011
300.012
300.014
300.016
300.018
300.02
300.022
300.025
300.028
300.031
300.034
300.037
300.041
300.045
300.049
300.053
300.057
300.062
300.067
300.071
300.077
300.082
300.087
300.093
300.099
300.105
300.111
300.117
300.123
300.13
300.136
300.143
300.149
300.156
300.163
300.17
300.176
300.183
300.19
300.197
300.203
300.21
300.217
300.224
300.23
300.237
300.243
300.25
300.256
300.262
300.268
300.275
300.281
300.287
300.292
300.298
300
300
300
300
300
300
300
300
300
300
300.001
300.001
300.001
300.001
300.001
300.002
300.002
300.003
300.003
300.004
300.004
300.005
300.006
300.007
300.008
300.009
300.011
300.012
300.014
300.016
300.017
300.019
300.022
300.024
300.027
300.029
300.032
300.035
300.038
300.042
300.045
300.049
300.053
300.057
300.061
300.066
300.07
300.075
300.079
300.084
300.089
300.094
300.099
300.105
300.11
300.115
300.121
300.126
300.132
300.137
300.143
300.149
300.154
300.16
300.165
300.171
300.176
300.182
300.187
300.193
300.198
300.204
300.209
300.214
300.219
300.224
300.229
300.234
300.239
300.244
300.249
300
300
300
300
300
300
300
300
300
300
300
300.001
300.001
300.001
300.001
300.002
300.002
300.002
300.003
300.003
300.004
300.004
300.005
300.006
300.007
300.008
300.009
300.01
300.012
300.013
300.015
300.017
300.018
300.02
300.023
300.025
300.027
300.03
300.033
300.035
300.038
300.041
300.045
300.048
300.051
300.055
300.059
300.063
300.066
300.07
300.075
300.079
300.083
300.087
300.091
300.096
300.1
300.105
300.109
300.114
300.118
300.123
300.127
300.132
300.136
300.141
300.145
300.15
300.154
300.159
300.163
300.167
300.172
300.176
300.18
300.184
300.188
300.192
300.196
300.2
300.204
300
300
300
300
300
300
300
300
300
300
300
300
300.001
300.001
300.001
300.001
300.002
300.002
300.002
300.003
300.003
300.004
300.004
300.005
300.006
300.007
300.008
300.009
300.01
300.011
300.012
300.014
300.015
300.017
300.019
300.021
300.023
300.025
300.027
300.029
300.032
300.034
300.037
300.039
300.042
300.045
300.048
300.051
300.054
300.058
300.061
300.064
300.068
300.071
300.074
300.078
300.081
300.085
300.089
300.092
300.096
300.099
300.103
300.107
300.11
300.114
300.117
300.121
300.124
300.128
300.131
300.135
300.138
300.141
300.145
300.148
300.151
300.154
300.157
300.16
300.163
300
300
300
300
300
300
300
300
300
300
300
300
300
300.001
300.001
300.001
300.001
300.001
300.002
300.002
300.003
300.003
300.004
300.004
300.005
300.005
300.006
300.007
300.008
300.009
300.01
300.011
300.012
300.014
300.015
300.017
300.018
300.02
300.022
300.024
300.025
300.027
300.03
300.032
300.034
300.036
300.039
300.041
300.043
300.046
300.048
300.051
300.054
300.056
300.059
300.062
300.065
300.067
300.07
300.073
300.076
300.079
300.081
300.084
300.087
300.09
300.092
300.095
300.098
300.101
300.103
300.106
300.108
300.111
300.114
300.116
300.119
300.121
300.123
300.126
300.128
300
300
300
300
300
300
300
300
300
300
300
300
300
300
300.001
300.001
300.001
300.001
300.001
300.002
300.002
300.002
300.003
300.003
300.004
300.004
300.005
300.006
300.006
300.007
300.008
300.009
300.01
300.011
300.012
300.013
300.014
300.016
300.017
300.018
300.02
300.021
300.023
300.025
300.026
300.028
300.03
300.032
300.034
300.036
300.038
300.04
300.042
300.044
300.046
300.048
300.05
300.052
300.054
300.056
300.058
300.06
300.062
300.065
300.067
300.069
300.071
300.073
300.075
300.077
300.079
300.081
300.083
300.085
300.087
300.089
300.091
300.092
300.094
300.096
300.098
300
300
300
300
300
300
300
300
300
300
300
300
300
300
300
300
300.001
300.001
300.001
300.001
300.001
300.002
300.002
300.002
300.003
300.003
300.004
300.004
300.005
300.005
300.006
300.007
300.007
300.008
300.009
300.01
300.011
300.012
300.013
300.014
300.015
300.016
300.017
300.019
300.02
300.021
300.023
300.024
300.025
300.027
300.028
300.03
300.031
300.033
300.034
300.036
300.037
300.039
300.04
300.042
300.043
300.045
300.047
300.048
300.05
300.051
300.053
300.054
300.056
300.057
300.059
300.06
300.062
300.063
300.064
300.066
300.067
300.069
300.07
300.071
300.072
300
300
300
300
300
300
300
300
300
300
300
300
300
300
300
300
300
300.001
300.001
300.001
300.001
300.001
300.001
300.002
300.002
300.002
300.003
300.003
300.003
300.004
300.004
300.005
300.005
300.006
300.007
300.007
300.008
300.009
300.009
300.01
300.011
300.012
300.013
300.013
300.014
300.015
300.016
300.017
300.018
300.019
300.02
300.021
300.022
300.024
300.025
300.026
300.027
300.028
300.029
300.03
300.031
300.032
300.033
300.035
300.036
300.037
300.038
300.039
300.04
300.041
300.042
300.043
300.044
300.045
300.046
300.047
300.048
300.049
300.05
300.051
300.052
300
300
300
300
300
300
300
300
300
300
300
300
300
300
300
300
300
300
300
300
300.001
300.001
300.001
300.001
300.001
300.001
300.002
300.002
300.002
300.003
300.003
300.003
300.004
300.004
300.004
300.005
300.005
300.006
300.006
300.007
300.008
300.008
300.009
300.009
300.01
300.011
300.011
300.012
300.013
300.013
300.014
300.015
300.016
300.016
300.017
300.018
300.019
300.019
300.02
300.021
300.022
300.022
300.023
300.024
300.025
300.025
300.026
300.027
300.028
300.028
300.029
300.03
300.03
300.031
300.032
300.033
300.033
300.034
300.035
300.035
300.036
300
300
300
300
300
300
300
300
300
300
300
300
300
300
300
300
300
300
300
300
300
300
300
300.001
300.001
300.001
300.001
300.001
300.001
300.002
300.002
300.002
300.002
300.003
300.003
300.003
300.003
300.004
300.004
300.005
300.005
300.005
300.006
300.006
300.007
300.007
300.007
300.008
300.008
300.009
300.009
300.01
300.01
300.011
300.011
300.012
300.012
300.013
300.013
300.014
300.014
300.015
300.015
300.016
300.016
300.017
300.017
300.018
300.018
300.019
300.019
300.02
300.02
300.021
300.021
300.021
300.022
300.022
300.023
300.023
300.024
300
300
300
300
300
300
300
300
300
300
300
300
300
300
300
300
300
300
300
300
300
300
300
300
300
300
300
300.001
300.001
300.001
300.001
300.001
300.001
300.001
300.002
300.002
300.002
300.002
300.002
300.003
300.003
300.003
300.003
300.004
300.004
300.004
300.005
300.005
300.005
300.005
300.006
300.006
300.006
300.007
300.007
300.007
300.008
300.008
300.008
300.009
300.009
300.009
300.009
300.01
300.01
300.01
300.011
300.011
300.011
300.012
300.012
300.012
300.013
300.013
300.013
300.013
300.014
300.014
300.014
300.014
300.015
300
300
300
300
300
300
300
300
300
300
300
300
300
300
300
300
300
300
300
300
300
300
300
300
300
300
300
300
300
300
300
300
300.001
300.001
300.001
300.001
300.001
300.001
300.001
300.001
300.002
300.002
300.002
300.002
300.002
300.002
300.003
300.003
300.003
300.003
300.003
300.003
300.004
300.004
300.004
300.004
300.004
300.005
300.005
300.005
300.005
300.005
300.005
300.006
300.006
300.006
300.006
300.006
300.007
300.007
300.007
300.007
300.007
300.007
300.008
300.008
300.008
300.008
300.008
300.008
300.009
300
300
300
300
300
300
300
300
300
300
300
300
300
300
300
300
300
300
300
300
300
300
300
300
300
300
300
300
300
300
300
300
300
300
300
300
300
300
300
300.001
300.001
300.001
300.001
300.001
300.001
300.001
300.001
300.001
300.001
300.001
300.002
300.002
300.002
300.002
300.002
300.002
300.002
300.002
300.002
300.003
300.003
300.003
300.003
300.003
300.003
300.003
300.003
300.003
300.004
300.004
300.004
300.004
300.004
300.004
300.004
300.004
300.004
300.004
300.005
300.005
300.005
300
300
300
300
300
300
300
300
300
300
300
300
300
300
300
300
300
300
300
300
300
300
300
300
300
300
300
300
300
300
300
300
300
300
300
300
300
300
300
300
300
300
300
300
300
300
300
300
300.001
300.001
300.001
300.001
300.001
300.001
300.001
300.001
300.001
300.001
300.001
300.001
300.001
300.001
300.001
300.001
300.001
300.002
300.002
300.002
300.002
300.002
300.002
300.002
300.002
300.002
300.002
300.002
300.002
300.002
300.002
300.002
300.002
300
300
300
300
300
300
300
300
300
300
300
300
300
300
300
300
300
300
300
300
300
300
300
300
300
300
300
300
300
300
300
300
300
300
300
300
300
300
300
300
300
300
300
300
300
300
300
300
300
300
300
300
300
300
300
300
300
300
300
300.001
300.001
300.001
300.001
300.001
300.001
300.001
300.001
300.001
300.001
300.001
300.001
300.001
300.001
300.001
300.001
300.001
300.001
300.001
300.001
300.001
300.001
302.106
302.225
302.295
302.36
302.415
302.46
302.489
302.522
302.554
302.584
302.609
302.636
302.663
302.689
302.714
302.739
302.762
302.782
302.803
302.823
302.843
302.864
302.884
302.903
302.922
302.94
302.958
302.975
302.992
303.008
303.024
303.04
303.055
303.07
303.084
303.098
303.111
303.125
303.137
303.15
303.162
303.174
303.186
303.199
303.21
303.222
303.232
303.242
303.253
303.264
303.273
303.282
303.291
303.3
303.309
303.318
303.327
303.335
303.343
303.351
303.357
303.364
303.37
303.377
303.383
303.389
303.395
303.401
303.407
303.412
303.417
303.422
303.426
303.43
303.434
303.438
303.442
303.445
303.449
303.452
303.455
303.458
303.461
303.463
303.466
303.467
303.47
303.472
303.473
303.475
303.476
303.478
303.479
303.48
303.481
303.482
303.483
303.484
303.485
303.485
303.486
303.486
303.486
303.487
303.487
303.487
303.487
303.487
303.487
303.487
303.487
303.487
303.487
303.487
303.486
303.486
303.486
303.486
303.486
303.486
303.485
303.485
303.485
303.484
303.484
303.483
303.482
303.482
303.48
303.479
303.477
303.475
303.473
303.47
303.467
303.463
303.459
303.454
303.449
303.443
303.436
303.429
303.42
303.411
303.4
303.388
303.374
303.359
303.341
303.32
303.293
303.265
303.236
303.202
303.162
303.114
303.06
302.962
302.868
302.741
302.565
302.008
302.112
302.191
302.258
302.315
302.363
302.402
302.438
302.473
302.504
302.533
302.562
302.59
302.617
302.643
302.668
302.691
302.713
302.735
302.756
302.777
302.797
302.818
302.837
302.856
302.875
302.893
302.91
302.928
302.944
302.96
302.976
302.991
303.006
303.021
303.035
303.049
303.062
303.075
303.088
303.1
303.112
303.125
303.137
303.149
303.16
303.171
303.181
303.192
303.202
303.212
303.221
303.23
303.239
303.248
303.257
303.266
303.274
303.282
303.289
303.296
303.303
303.309
303.316
303.322
303.329
303.335
303.34
303.346
303.351
303.356
303.361
303.365
303.369
303.373
303.377
303.381
303.385
303.388
303.391
303.394
303.397
303.4
303.402
303.405
303.407
303.409
303.411
303.412
303.414
303.415
303.417
303.418
303.419
303.42
303.421
303.422
303.423
303.424
303.424
303.425
303.425
303.425
303.426
303.426
303.426
303.426
303.426
303.426
303.426
303.426
303.426
303.426
303.426
303.425
303.425
303.425
303.425
303.425
303.425
303.424
303.424
303.424
303.423
303.423
303.422
303.421
303.42
303.419
303.418
303.416
303.414
303.412
303.409
303.406
303.402
303.398
303.394
303.388
303.382
303.376
303.368
303.36
303.351
303.34
303.328
303.314
303.299
303.281
303.26
303.234
303.206
303.176
303.141
303.1
303.051
302.993
302.899
302.8
302.668
302.475
301.928
302.017
302.094
302.161
302.219
302.269
302.313
302.352
302.389
302.422
302.454
302.484
302.513
302.541
302.567
302.593
302.617
302.641
302.663
302.685
302.706
302.727
302.748
302.768
302.787
302.806
302.824
302.842
302.86
302.877
302.893
302.909
302.925
302.94
302.954
302.969
302.983
302.996
303.01
303.022
303.035
303.047
303.06
303.072
303.083
303.095
303.106
303.116
303.127
303.137
303.147
303.156
303.166
303.175
303.184
303.193
303.201
303.209
303.217
303.225
303.232
303.238
303.245
303.252
303.258
303.264
303.27
303.276
303.281
303.286
303.291
303.296
303.301
303.305
303.309
303.313
303.316
303.32
303.323
303.327
303.33
303.333
303.335
303.338
303.34
303.342
303.344
303.346
303.348
303.349
303.351
303.352
303.353
303.355
303.356
303.357
303.358
303.358
303.359
303.36
303.36
303.36
303.361
303.361
303.361
303.361
303.361
303.361
303.361
303.361
303.361
303.361
303.361
303.361
303.361
303.361
303.361
303.36
303.36
303.36
303.36
303.36
303.359
303.359
303.358
303.358
303.357
303.356
303.355
303.353
303.352
303.35
303.347
303.345
303.341
303.338
303.334
303.329
303.324
303.318
303.312
303.304
303.296
303.287
303.276
303.264
303.251
303.235
303.217
303.196
303.171
303.143
303.112
303.077
303.035
302.985
302.923
302.832
302.729
302.592
302.39
301.854
301.933
302.004
302.069
302.126
302.177
302.222
302.264
302.302
302.338
302.371
302.403
302.433
302.461
302.489
302.515
302.54
302.564
302.588
302.61
302.632
302.654
302.674
302.695
302.714
302.734
302.752
302.77
302.788
302.805
302.822
302.838
302.854
302.869
302.884
302.899
302.913
302.927
302.94
302.953
302.966
302.978
302.991
303.003
303.015
303.026
303.037
303.048
303.058
303.069
303.078
303.088
303.097
303.106
303.115
303.124
303.133
303.141
303.149
303.156
303.163
303.17
303.177
303.183
303.19
303.196
303.202
303.207
303.213
303.218
303.223
303.228
303.232
303.237
303.241
303.244
303.248
303.252
303.255
303.258
303.261
303.264
303.267
303.269
303.272
303.274
303.276
303.278
303.279
303.281
303.282
303.284
303.285
303.286
303.287
303.288
303.289
303.29
303.29
303.291
303.292
303.292
303.292
303.292
303.293
303.293
303.293
303.293
303.293
303.293
303.293
303.293
303.293
303.293
303.292
303.292
303.292
303.292
303.292
303.292
303.291
303.291
303.291
303.29
303.29
303.289
303.288
303.287
303.286
303.285
303.283
303.281
303.279
303.276