/*--------------------------------*- C++ -*----------------------------------*\
| =========                 |                                                 |
| \\      /  F ield         | OpenFOAM: The Open Source CFD Toolbox           |
|  \\    /   O peration     | Version:  2106                                  |
|   \\  /    A nd           | Website:  www.openfoam.com                      |
|    \\/     M anipulation  |                                                 |
\*---------------------------------------------------------------------------*/
FoamFile
{
    version     2.0;
    format      ascii;
    arch        "LSB;label=32;scalar=64";
    class       volVectorField;
    location    "0.6";
    object      U;
}
// * * * * * * * * * * * * * * * * * * * * * * * * * * * * * * * * * * * * * //

dimensions      [0 1 -1 0 0 0 0];

internalField   nonuniform List<vector> 
12013
(
(0.100001 5.29861e-07 0)
(0.0999883 2.79394e-06 0)
(0.099943 6.67765e-06 0)
(0.0998528 1.11588e-05 0)
(0.0997205 1.49386e-05 0)
(0.0995604 1.71908e-05 0)
(0.0993903 1.7854e-05 0)
(0.0992242 1.74199e-05 0)
(0.0990687 1.65327e-05 0)
(0.098925 1.56877e-05 0)
(0.0987907 1.51324e-05 0)
(0.0986624 1.49114e-05 0)
(0.0985373 1.49585e-05 0)
(0.0984135 1.51771e-05 0)
(0.0982901 1.54817e-05 0)
(0.0981667 1.58152e-05 0)
(0.0980432 1.61451e-05 0)
(0.09792 1.64567e-05 0)
(0.0977972 1.67451e-05 0)
(0.097675 1.70102e-05 0)
(0.0975537 1.7254e-05 0)
(0.0974334 1.74762e-05 0)
(0.0973144 1.76771e-05 0)
(0.0971967 1.78561e-05 0)
(0.0970806 1.8011e-05 0)
(0.0969663 1.81394e-05 0)
(0.0968539 1.82383e-05 0)
(0.0967436 1.83049e-05 0)
(0.0966357 1.83364e-05 0)
(0.0965302 1.8331e-05 0)
(0.0964275 1.82873e-05 0)
(0.0963277 1.82045e-05 0)
(0.0962309 1.80833e-05 0)
(0.0961374 1.79255e-05 0)
(0.0960473 1.77339e-05 0)
(0.0959606 1.75138e-05 0)
(0.0958775 1.72705e-05 0)
(0.0957979 1.70114e-05 0)
(0.0957219 1.67459e-05 0)
(0.0956493 1.6484e-05 0)
(0.0955801 1.62379e-05 0)
(0.095514 1.60206e-05 0)
(0.0954509 1.58474e-05 0)
(0.0953904 1.57354e-05 0)
(0.0953321 1.57026e-05 0)
(0.0952757 1.57699e-05 0)
(0.0952206 1.59597e-05 0)
(0.0951663 1.62977e-05 0)
(0.0951121 1.68118e-05 0)
(0.0950574 1.75343e-05 0)
(0.0950012 1.85013e-05 0)
(0.0949427 1.97542e-05 0)
(0.0948809 2.13411e-05 0)
(0.0948146 2.33174e-05 0)
(0.0947425 2.57494e-05 0)
(0.0946632 2.87148e-05 0)
(0.094575 3.23064e-05 0)
(0.094476 3.66366e-05 0)
(0.0943641 4.18422e-05 0)
(0.0942367 4.80906e-05 0)
(0.0940908 5.55883e-05 0)
(0.0939231 6.45947e-05 0)
(0.0937295 7.54351e-05 0)
(0.0935049 8.85254e-05 0)
(0.0932435 0.000104401 0)
(0.0929379 0.00012376 0)
(0.0925791 0.000147529 0)
(0.0921559 0.00017695 0)
(0.0916537 0.000213724 0)
(0.091054 0.000260216 0)
(0.0903324 0.000319784 0)
(0.0894562 0.000397298 0)
(0.088381 0.000499972 0)
(0.0870448 0.000638748 0)
(0.0853596 0.000830618 0)
(0.0831982 0.00110258 0)
(0.0803721 0.00149858 0)
(0.0765828 0.00209384 0)
(0.071366 0.00303999 0)
(0.0641725 0.00476063 0)
(0.0560753 0.00916286 0)
(0.100001 1.58562e-06 0)
(0.0999891 8.51091e-06 0)
(0.0999448 2.0409e-05 0)
(0.0998557 3.41543e-05 0)
(0.0997246 4.57648e-05 0)
(0.0995655 5.26996e-05 0)
(0.0993961 5.47604e-05 0)
(0.0992303 5.3452e-05 0)
(0.099075 5.07464e-05 0)
(0.0989313 4.81623e-05 0)
(0.0987969 4.64609e-05 0)
(0.0986685 4.57809e-05 0)
(0.0985434 4.5922e-05 0)
(0.0984196 4.65873e-05 0)
(0.0982962 4.75177e-05 0)
(0.0981728 4.8537e-05 0)
(0.0980495 4.95465e-05 0)
(0.0979264 5.05003e-05 0)
(0.0978037 5.13844e-05 0)
(0.0976817 5.2198e-05 0)
(0.0975605 5.29452e-05 0)
(0.0974404 5.36281e-05 0)
(0.0973215 5.42464e-05 0)
(0.097204 5.4797e-05 0)
(0.097088 5.52743e-05 0)
(0.0969737 5.56711e-05 0)
(0.0968614 5.59783e-05 0)
(0.0967511 5.61874e-05 0)
(0.0966432 5.62895e-05 0)
(0.0965377 5.62787e-05 0)
(0.0964348 5.61515e-05 0)
(0.0963349 5.5906e-05 0)
(0.0962379 5.5543e-05 0)
(0.0961442 5.50684e-05 0)
(0.0960537 5.4492e-05 0)
(0.0959667 5.38282e-05 0)
(0.0958831 5.3095e-05 0)
(0.095803 5.23151e-05 0)
(0.0957264 5.15156e-05 0)
(0.0956531 5.07286e-05 0)
(0.0955831 4.99905e-05 0)
(0.0955162 4.93427e-05 0)
(0.0954521 4.88312e-05 0)
(0.0953906 4.85077e-05 0)
(0.0953312 4.84291e-05 0)
(0.0952736 4.86575e-05 0)
(0.0952173 4.92625e-05 0)
(0.0951617 5.03218e-05 0)
(0.0951061 5.19228e-05 0)
(0.0950498 5.41629e-05 0)
(0.0949921 5.71523e-05 0)
(0.0949321 6.10179e-05 0)
(0.0948686 6.59064e-05 0)
(0.0948006 7.19873e-05 0)
(0.0947269 7.94614e-05 0)
(0.0946459 8.8566e-05 0)
(0.0945561 9.95841e-05 0)
(0.0944556 0.000112857 0)
(0.0943423 0.000128798 0)
(0.0942138 0.000147915 0)
(0.0940671 0.000170834 0)
(0.093899 0.000198336 0)
(0.0937054 0.000231401 0)
(0.0934818 0.000271278 0)
(0.0932224 0.000319569 0)
(0.0929205 0.000378356 0)
(0.0925675 0.000450385 0)
(0.0921531 0.000539324 0)
(0.0916642 0.000650154 0)
(0.0910842 0.000789748 0)
(0.0903918 0.000967759 0)
(0.0895594 0.00119799 0)
(0.0885505 0.00150057 0)
(0.0873169 0.00190529 0)
(0.0857939 0.00245702 0)
(0.0838964 0.00322398 0)
(0.0815132 0.00430962 0)
(0.0784987 0.00586877 0)
(0.0746911 0.00812832 0)
(0.0701446 0.011351 0)
(0.0661688 0.0153943 0)
(0.100001 2.58998e-06 0)
(0.0999902 1.43992e-05 0)
(0.0999476 3.47537e-05 0)
(0.0998611 5.8341e-05 0)
(0.0997328 7.83374e-05 0)
(0.0995763 9.03604e-05 0)
(0.0994087 9.40312e-05 0)
(0.0992439 9.19006e-05 0)
(0.099089 8.73341e-05 0)
(0.0989452 8.29374e-05 0)
(0.0988106 8.00255e-05 0)
(0.0986819 7.88473e-05 0)
(0.0985566 7.90698e-05 0)
(0.0984328 8.01906e-05 0)
(0.0983095 8.17689e-05 0)
(0.0981863 8.35041e-05 0)
(0.0980633 8.52266e-05 0)
(0.0979405 8.68582e-05 0)
(0.0978182 8.83735e-05 0)
(0.0976965 8.9771e-05 0)
(0.0975758 9.10561e-05 0)
(0.097456 9.22334e-05 0)
(0.0973375 9.33019e-05 0)
(0.0972203 9.42561e-05 0)
(0.0971046 9.50865e-05 0)
(0.0969906 9.57807e-05 0)
(0.0968785 9.63238e-05 0)
(0.0967684 9.67009e-05 0)
(0.0966606 9.68979e-05 0)
(0.0965551 9.69045e-05 0)
(0.0964523 9.67137e-05 0)
(0.0963522 9.63232e-05 0)
(0.096255 9.57353e-05 0)
(0.0961609 9.49601e-05 0)
(0.09607 9.40143e-05 0)
(0.0959824 9.29222e-05 0)
(0.0958981 9.17155e-05 0)
(0.0958171 9.0433e-05 0)
(0.0957394 8.91213e-05 0)
(0.095665 8.78358e-05 0)
(0.0955937 8.66384e-05 0)
(0.0955253 8.56003e-05 0)
(0.0954596 8.48007e-05 0)
(0.0953962 8.43278e-05 0)
(0.0953349 8.42787e-05 0)
(0.0952751 8.47601e-05 0)
(0.0952165 8.58915e-05 0)
(0.0951584 8.78055e-05 0)
(0.0951002 9.06514e-05 0)
(0.0950412 9.45947e-05 0)
(0.0949806 9.98243e-05 0)
(0.0949176 0.000106556 0)
(0.094851 0.000115039 0)
(0.09478 0.000125563 0)
(0.0947031 0.000138465 0)
(0.094619 0.000154148 0)
(0.0945261 0.000173089 0)
(0.0944227 0.000195863 0)
(0.0943067 0.000223164 0)
(0.0941759 0.000255841 0)
(0.0940274 0.000294938 0)
(0.0938582 0.000341751 0)
(0.0936646 0.000397901 0)
(0.0934424 0.000465437 0)
(0.0931864 0.000546975 0)
(0.0928905 0.000645885 0)
(0.0925473 0.000766569 0)
(0.092148 0.000914841 0)
(0.0916817 0.00109848 0)
(0.091135 0.00132805 0)
(0.0904918 0.00161805 0)
(0.089732 0.00198868 0)
(0.0888313 0.00246836 0)
(0.0877605 0.00309737 0)
(0.0864868 0.00393283 0)
(0.0849763 0.00505468 0)
(0.0832028 0.00657052 0)
(0.0811645 0.00861283 0)
(0.0789274 0.0113137 0)
(0.0767565 0.0146821 0)
(0.0753594 0.0181122 0)
(0.100001 3.49977e-06 0)
(0.0999916 2.03225e-05 0)
(0.0999517 4.94654e-05 0)
(0.0998693 8.34018e-05 0)
(0.0997456 0.000112349 0)
(0.0995933 0.000129954 0)
(0.0994288 0.00013558 0)
(0.0992658 0.00013281 0)
(0.0991115 0.000126437 0)
(0.0989677 0.000120207 0)
(0.0988326 0.000116034 0)
(0.0987036 0.000114308 0)
(0.098578 0.000114577 0)
(0.0984542 0.000116138 0)
(0.098331 0.000118364 0)
(0.0982082 0.000120828 0)
(0.0980857 0.000123285 0)
(0.0979635 0.000125622 0)
(0.0978418 0.000127799 0)
(0.0977208 0.000129813 0)
(0.0976007 0.00013167 0)
(0.0974817 0.000133377 0)
(0.0973638 0.000134931 0)
(0.0972473 0.000136325 0)
(0.0971322 0.000137544 0)
(0.0970188 0.000138572 0)
(0.0969072 0.000139387 0)
(0.0967976 0.000139968 0)
(0.0966901 0.000140297 0)
(0.0965849 0.000140358 0)
(0.0964821 0.000140141 0)
(0.0963821 0.000139644 0)
(0.0962848 0.000138872 0)
(0.0961904 0.000137838 0)
(0.0960991 0.000136567 0)
(0.0960108 0.000135095 0)
(0.0959257 0.000133468 0)
(0.0958437 0.00013174 0)
(0.0957648 0.000129981 0)
(0.0956889 0.000128268 0)
(0.0956159 0.000126693 0)
(0.0955456 0.000125356 0)
(0.0954777 0.000124372 0)
(0.0954119 0.000123868 0)
(0.095348 0.000123983 0)
(0.0952854 0.00012487 0)
(0.0952236 0.000126702 0)
(0.0951622 0.000129667 0)
(0.0951006 0.000133979 0)
(0.0950379 0.000139875 0)
(0.0949735 0.000147625 0)
(0.0949064 0.000157535 0)
(0.0948359 0.00016996 0)
(0.0947606 0.000185309 0)
(0.0946796 0.000204062 0)
(0.0945914 0.000226784 0)
(0.0944947 0.000254146 0)
(0.0943876 0.000286952 0)
(0.0942684 0.00032617 0)
(0.0941348 0.000372979 0)
(0.0939845 0.000428818 0)
(0.0938147 0.000495463 0)
(0.093622 0.000575123 0)
(0.0934028 0.000670561 0)
(0.0931527 0.000785272 0)
(0.0928668 0.00092371 0)
(0.092539 0.00109161 0)
(0.0921625 0.00129641 0)
(0.0917295 0.00154787 0)
(0.0912308 0.00185893 0)
(0.0906563 0.0022468 0)
(0.0899948 0.00273459 0)
(0.0892352 0.00335331 0)
(0.0883681 0.00414433 0)
(0.0873891 0.00516181 0)
(0.0863052 0.0064737 0)
(0.0851463 0.00815732 0)
(0.0839818 0.0102813 0)
(0.0829444 0.0128581 0)
(0.0822568 0.0157282 0)
(0.0821954 0.0183065 0)
(0.100001 4.27276e-06 0)
(0.0999932 2.61052e-05 0)
(0.099957 6.42169e-05 0)
(0.0998801 0.000108903 0)
(0.0997629 0.000147363 0)
(0.0996166 0.000171148 0)
(0.0994568 0.000179239 0)
(0.0992964 0.000176177 0)
(0.0991431 0.000168178 0)
(0.0989992 0.000160164 0)
(0.0988637 0.000154701 0)
(0.0987341 0.000152365 0)
(0.0986083 0.000152619 0)
(0.0984844 0.000154571 0)
(0.0983616 0.000157417 0)
(0.0982394 0.000160598 0)
(0.0981176 0.000163793 0)
(0.0979962 0.000166848 0)
(0.0978755 0.000169708 0)
(0.0977556 0.000172365 0)
(0.0976365 0.000174825 0)
(0.0975185 0.000177093 0)
(0.0974017 0.000179167 0)
(0.0972862 0.000181036 0)
(0.0971721 0.000182683 0)
(0.0970597 0.000184084 0)
(0.0969489 0.000185212 0)
(0.0968401 0.000186042 0)
(0.0967332 0.000186549 0)
(0.0966286 0.000186714 0)
(0.0965263 0.000186525 0)
(0.0964265 0.000185979 0)
(0.0963294 0.000185084 0)
(0.0962349 0.00018386 0)
(0.0961432 0.000182339 0)
(0.0960545 0.000180568 0)
(0.0959686 0.000178608 0)
(0.0958856 0.000176532 0)
(0.0958054 0.000174433 0)
(0.0957279 0.000172412 0)
(0.095653 0.000170589 0)
(0.0955806 0.000169098 0)
(0.0955102 0.000168089 0)
(0.0954417 0.000167729 0)
(0.0953748 0.000168201 0)
(0.0953088 0.000169707 0)
(0.0952436 0.000172472 0)
(0.0951783 0.000176745 0)
(0.0951126 0.000182802 0)
(0.0950457 0.000190956 0)
(0.0949768 0.000201556 0)
(0.0949052 0.000215001 0)
(0.09483 0.000231751 0)
(0.0947501 0.000252332 0)
(0.0946644 0.000277363 0)
(0.0945718 0.000307566 0)
(0.0944709 0.000343799 0)
(0.0943601 0.000387078 0)
(0.0942377 0.000438627 0)
(0.0941019 0.00049992 0)
(0.0939506 0.000572745 0)
(0.0937814 0.000659294 0)
(0.0935915 0.000762259 0)
(0.0933781 0.000884974 0)
(0.0931376 0.0010316 0)
(0.0928665 0.00120735 0)
(0.0925605 0.00141881 0)
(0.0922152 0.00167435 0)
(0.0918261 0.00198467 0)
(0.0913884 0.00236345 0)
(0.0908982 0.00282827 0)
(0.090353 0.00340162 0)
(0.089753 0.00411196 0)
(0.0891043 0.00499455 0)
(0.0884218 0.00609127 0)
(0.0877356 0.00744765 0)
(0.0870982 0.00910396 0)
(0.0865924 0.0110744 0)
(0.0863341 0.0133067 0)
(0.0864569 0.0156135 0)
(0.0870392 0.0175864 0)
(0.100001 4.85373e-06 0)
(0.0999951 3.15432e-05 0)
(0.0999633 7.86215e-05 0)
(0.0998934 0.000134324 0)
(0.0997846 0.000182841 0)
(0.0996461 0.000213511 0)
(0.0994921 0.00022476 0)
(0.0993354 0.000221946 0)
(0.0991836 0.000212651 0)
(0.0990399 0.00020299 0)
(0.0989039 0.000196238 0)
(0.0987739 0.000193224 0)
(0.0986477 0.000193369 0)
(0.098524 0.000195627 0)
(0.0984016 0.000199029 0)
(0.0982801 0.000202887 0)
(0.0981594 0.000206801 0)
(0.0980392 0.000210571 0)
(0.0979199 0.000214123 0)
(0.0978013 0.00021744 0)
(0.0976837 0.000220525 0)
(0.0975672 0.000223383 0)
(0.0974518 0.000226009 0)
(0.0973377 0.000228388 0)
(0.0972251 0.000230501 0)
(0.0971139 0.000232317 0)
(0.0970045 0.000233805 0)
(0.0968968 0.000234934 0)
(0.0967911 0.000235675 0)
(0.0966874 0.000236006 0)
(0.0965859 0.000235913 0)
(0.0964868 0.000235395 0)
(0.09639 0.000234462 0)
(0.0962957 0.000233141 0)
(0.096204 0.000231473 0)
(0.0961149 0.000229517 0)
(0.0960284 0.00022735 0)
(0.0959445 0.000225066 0)
(0.0958631 0.000222777 0)
(0.0957841 0.000220613 0)
(0.0957073 0.000218723 0)
(0.0956327 0.000217274 0)
(0.0955598 0.000216454 0)
(0.0954884 0.000216468 0)
(0.0954182 0.000217545 0)
(0.0953488 0.000219937 0)
(0.0952797 0.000223922 0)
(0.0952104 0.000229809 0)
(0.0951404 0.000237938 0)
(0.095069 0.000248694 0)
(0.0949954 0.000262507 0)
(0.0949191 0.000279865 0)
(0.094839 0.000301326 0)
(0.0947544 0.000327533 0)
(0.0946642 0.00035923 0)
(0.0945673 0.000397285 0)
(0.0944625 0.000442721 0)
(0.0943485 0.000496745 0)
(0.0942238 0.000560793 0)
(0.094087 0.000636585 0)
(0.0939362 0.000726187 0)
(0.0937696 0.000832099 0)
(0.0935853 0.000957355 0)
(0.093381 0.00110566 0)
(0.0931545 0.00128154 0)
(0.0929035 0.00149058 0)
(0.0926257 0.00173966 0)
(0.0923193 0.00203727 0)
(0.0919828 0.00239391 0)
(0.0916157 0.00282252 0)
(0.0912194 0.00333895 0)
(0.090798 0.00396234 0)
(0.0903599 0.00471527 0)
(0.0899204 0.00562331 0)
(0.0895038 0.00671317 0)
(0.0891474 0.00800832 0)
(0.088904 0.00952017 0)
(0.0888426 0.0112321 0)
(0.0890417 0.0130751 0)
(0.0895671 0.0148973 0)
(0.090421 0.0164459 0)
(0.100002 5.18333e-06 0)
(0.0999972 3.64202e-05 0)
(0.0999705 9.22632e-05 0)
(0.0999087 0.00015909 0)
(0.0998096 0.000218173 0)
(0.0996806 0.000256531 0)
(0.099534 0.000271816 0)
(0.0993818 0.000269996 0)
(0.0992323 0.000259903 0)
(0.0990891 0.000248834 0)
(0.0989528 0.000240838 0)
(0.0988223 0.000237072 0)
(0.098696 0.00023699 0)
(0.0985725 0.000239433 0)
(0.0984508 0.00024329 0)
(0.0983304 0.000247754 0)
(0.098211 0.000252341 0)
(0.0980924 0.000256803 0)
(0.0979747 0.000261041 0)
(0.0978579 0.000265023 0)
(0.0977422 0.000268748 0)
(0.0976275 0.000272217 0)
(0.097514 0.000275421 0)
(0.0974018 0.000278344 0)
(0.097291 0.000280959 0)
(0.0971817 0.000283233 0)
(0.0970739 0.00028513 0)
(0.0969679 0.000286615 0)
(0.0968637 0.000287654 0)
(0.0967613 0.000288224 0)
(0.096661 0.000288311 0)
(0.0965628 0.000287915 0)
(0.0964668 0.00028705 0)
(0.0963731 0.000285751 0)
(0.0962816 0.000284069 0)
(0.0961925 0.000282076 0)
(0.0961056 0.000279866 0)
(0.096021 0.000277551 0)
(0.0959386 0.000275268 0)
(0.0958582 0.000273172 0)
(0.0957797 0.000271443 0)
(0.0957029 0.000270282 0)
(0.0956275 0.000269912 0)
(0.0955533 0.000270581 0)
(0.09548 0.000272561 0)
(0.0954071 0.000276153 0)
(0.0953342 0.000281688 0)
(0.0952608 0.000289532 0)
(0.0951865 0.00030009 0)
(0.0951106 0.000313813 0)
(0.0950326 0.000331209 0)
(0.0949516 0.000352847 0)
(0.094867 0.000379378 0)
(0.094778 0.000411546 0)
(0.0946837 0.000450205 0)
(0.0945831 0.00049635 0)
(0.0944753 0.000551136 0)
(0.0943592 0.000615921 0)
(0.0942337 0.000692301 0)
(0.0940975 0.000782168 0)
(0.0939494 0.000887766 0)
(0.0937882 0.00101177 0)
(0.0936125 0.00115738 0)
(0.0934211 0.00132842 0)
(0.0932129 0.00152948 0)
(0.0929871 0.00176606 0)
(0.0927433 0.00204476 0)
(0.0924816 0.00237345 0)
(0.0922035 0.00276148 0)
(0.0919118 0.00321985 0)
(0.0916117 0.00376128 0)
(0.0913114 0.00440009 0)
(0.0910239 0.00515176 0)
(0.0907676 0.00603177 0)
(0.0905686 0.00705332 0)
(0.0904613 0.00822337 0)
(0.0904884 0.00953605 0)
(0.0906984 0.0109631 0)
(0.0911371 0.0124423 0)
(0.091831 0.013867 0)
(0.0927602 0.0150889 0)
(0.100002 5.2063e-06 0)
(0.0999994 4.0533e-05 0)
(0.099978 0.00010474 0)
(0.0999252 0.000182628 0)
(0.099837 0.000252721 0)
(0.0997185 0.000299642 0)
(0.0995805 0.000320009 0)
(0.099434 0.000320127 0)
(0.0992874 0.000309903 0)
(0.0991453 0.000297783 0)
(0.0990091 0.000288642 0)
(0.0988785 0.000284062 0)
(0.0987523 0.000283615 0)
(0.0986293 0.000286091 0)
(0.0985085 0.000290269 0)
(0.0983894 0.000295235 0)
(0.0982716 0.000300423 0)
(0.098155 0.000305534 0)
(0.0980393 0.000310433 0)
(0.0979247 0.000315074 0)
(0.0978112 0.000319445 0)
(0.0976988 0.000323538 0)
(0.0975876 0.000327342 0)
(0.0974777 0.000330836 0)
(0.0973691 0.000333989 0)
(0.097262 0.000336765 0)
(0.0971564 0.000339122 0)
(0.0970523 0.000341023 0)
(0.09695 0.000342433 0)
(0.0968494 0.000343326 0)
(0.0967506 0.00034369 0)
(0.0966538 0.000343528 0)
(0.0965589 0.00034286 0)
(0.096466 0.000341727 0)
(0.0963751 0.000340192 0)
(0.0962862 0.000338342 0)
(0.0961992 0.000336286 0)
(0.0961142 0.000334158 0)
(0.0960309 0.000332115 0)
(0.0959494 0.000330342 0)
(0.0958693 0.000329047 0)
(0.0957906 0.000328463 0)
(0.0957129 0.000328851 0)
(0.0956361 0.000330496 0)
(0.0955597 0.000333716 0)
(0.0954835 0.000338857 0)
(0.0954071 0.0003463 0)
(0.0953299 0.000356465 0)
(0.0952516 0.000369815 0)
(0.0951716 0.000386866 0)
(0.0950894 0.000408191 0)
(0.0950043 0.000434434 0)
(0.0949158 0.000466322 0)
(0.0948231 0.000504681 0)
(0.0947255 0.000550456 0)
(0.0946224 0.000604731 0)
(0.0945129 0.000668759 0)
(0.0943963 0.000743992 0)
(0.0942716 0.00083212 0)
(0.0941383 0.000935113 0)
(0.0939954 0.00105528 0)
(0.0938424 0.00119531 0)
(0.0936786 0.00135838 0)
(0.0935038 0.00154818 0)
(0.093318 0.00176904 0)
(0.0931216 0.00202598 0)
(0.0929157 0.00232482 0)
(0.0927023 0.00267224 0)
(0.0924849 0.00307578 0)
(0.0922683 0.00354382 0)
(0.0920599 0.00408536 0)
(0.09187 0.00470967 0)
(0.0917122 0.00542552 0)
(0.0916047 0.00623998 0)
(0.0915701 0.00715644 0)
(0.0916358 0.00817176 0)
(0.091832 0.00927237 0)
(0.092189 0.0104295 0)
(0.0927304 0.0115949 0)
(0.0934635 0.0126989 0)
(0.0943669 0.0136565 0)
(0.100002 4.88157e-06 0)
(0.100001 4.37189e-05 0)
(0.0999855 0.000115711 0)
(0.0999417 0.000204429 0)
(0.0998649 0.000285888 0)
(0.0997579 0.000342273 0)
(0.0996293 0.000368891 0)
(0.0994895 0.000372055 0)
(0.0993468 0.000362528 0)
(0.0992065 0.000349832 0)
(0.0990711 0.000339715 0)
(0.0989408 0.000334285 0)
(0.098815 0.000333332 0)
(0.0986928 0.000335669 0)
(0.0985733 0.000340007 0)
(0.0984559 0.000345346 0)
(0.0983401 0.000351041 0)
(0.0982256 0.000356735 0)
(0.0981123 0.000362258 0)
(0.0980002 0.000367537 0)
(0.0978893 0.000372547 0)
(0.0977795 0.000377271 0)
(0.097671 0.000381692 0)
(0.0975637 0.000385782 0)
(0.0974577 0.000389507 0)
(0.0973531 0.000392828 0)
(0.0972499 0.000395701 0)
(0.0971483 0.000398084 0)
(0.0970481 0.000399944 0)
(0.0969496 0.000401256 0)
(0.0968527 0.000402009 0)
(0.0967576 0.00040221 0)
(0.0966641 0.000401886 0)
(0.0965723 0.000401088 0)
(0.0964822 0.000399891 0)
(0.0963938 0.000398393 0)
(0.0963071 0.000396722 0)
(0.0962218 0.000395032 0)
(0.096138 0.000393502 0)
(0.0960555 0.000392343 0)
(0.0959742 0.000391791 0)
(0.0958938 0.000392111 0)
(0.0958141 0.000393597 0)
(0.0957349 0.000396573 0)
(0.0956558 0.000401394 0)
(0.0955766 0.000408451 0)
(0.0954969 0.000418169 0)
(0.0954164 0.000431017 0)
(0.0953346 0.00044751 0)
(0.095251 0.000468214 0)
(0.0951652 0.000493759 0)
(0.0950768 0.000524848 0)
(0.0949852 0.000562264 0)
(0.0948899 0.000606894 0)
(0.0947904 0.000659737 0)
(0.094686 0.000721933 0)
(0.0945764 0.000794778 0)
(0.094461 0.000879756 0)
(0.0943394 0.000978569 0)
(0.0942112 0.00109317 0)
(0.0940762 0.0012258 0)
(0.0939342 0.00137902 0)
(0.0937855 0.00155578 0)
(0.0936305 0.00175941 0)
(0.0934701 0.00199369 0)
(0.0933058 0.00226288 0)
(0.0931398 0.00257166 0)
(0.0929755 0.00292518 0)
(0.0928172 0.00332888 0)
(0.0926711 0.00378836 0)
(0.092545 0.00430905 0)
(0.0924491 0.00489576 0)
(0.092396 0.00555193 0)
(0.092401 0.00627867 0)
(0.0924816 0.0070734 0)
(0.0926573 0.00792815 0)
(0.0929474 0.00882764 0)
(0.093369 0.00974743 0)
(0.0939327 0.0106529 0)
(0.0946376 0.0115002 0)
(0.0954664 0.0122409 0)
(0.100002 4.1905e-06 0)
(0.100003 4.58807e-05 0)
(0.0999924 0.000124949 0)
(0.0999573 0.000224113 0)
(0.0998918 0.000317185 0)
(0.0997964 0.000383904 0)
(0.099678 0.000417994 0)
(0.0995456 0.000425423 0)
(0.0994077 0.000417546 0)
(0.0992702 0.000404859 0)
(0.0991363 0.000394016 0)
(0.0990071 0.000387747 0)
(0.0988823 0.000386165 0)
(0.0987614 0.000388188 0)
(0.0986435 0.000392515 0)
(0.098528 0.00039808 0)
(0.0984144 0.000404169 0)
(0.0983024 0.000410368 0)
(0.0981918 0.000416461 0)
(0.0980825 0.000422349 0)
(0.0979745 0.000427984 0)
(0.0978676 0.00043334 0)
(0.097762 0.000438389 0)
(0.0976576 0.000443098 0)
(0.0975545 0.000447431 0)
(0.0974527 0.000451343 0)
(0.0973522 0.000454789 0)
(0.0972532 0.00045773 0)
(0.0971555 0.000460129 0)
(0.0970593 0.000461966 0)
(0.0969645 0.000463234 0)
(0.0968712 0.000463946 0)
(0.0967793 0.000464136 0)
(0.0966889 0.000463864 0)
(0.0965999 0.000463217 0)
(0.0965122 0.00046231 0)
(0.0964259 0.000461284 0)
(0.0963407 0.000460313 0)
(0.0962565 0.0004596 0)
(0.0961734 0.000459377 0)
(0.096091 0.000459906 0)
(0.0960091 0.000461482 0)
(0.0959277 0.000464429 0)
(0.0958465 0.000469104 0)
(0.0957651 0.000475897 0)
(0.0956834 0.000485236 0)
(0.095601 0.000497585 0)
(0.0955176 0.000513451 0)
(0.0954329 0.000533389 0)
(0.0953465 0.000558007 0)
(0.0952581 0.000587973 0)
(0.0951673 0.000624027 0)
(0.0950737 0.000666987 0)
(0.094977 0.000717767 0)
(0.0948768 0.000777387 0)
(0.0947729 0.000846992 0)
(0.094665 0.000927868 0)
(0.0945528 0.00102146 0)
(0.0944363 0.00112941 0)
(0.0943156 0.00125353 0)
(0.0941909 0.00139589 0)
(0.0940625 0.00155878 0)
(0.0939313 0.00174474 0)
(0.0937983 0.00195659 0)
(0.0936651 0.00219738 0)
(0.093534 0.00247037 0)
(0.0934079 0.002779 0)
(0.0932906 0.00312676 0)
(0.093187 0.00351704 0)
(0.0931031 0.00395293 0)
(0.0930466 0.00443686 0)
(0.0930262 0.00497024 0)
(0.0930523 0.00555286 0)
(0.0931366 0.00618224 0)
(0.0932914 0.00685289 0)
(0.0935294 0.00755545 0)
(0.0938618 0.00827598 0)
(0.0942972 0.0089955 0)
(0.0948392 0.00969025 0)
(0.0954841 0.010333 0)
(0.096219 0.0108958 0)
(0.100002 3.14128e-06 0)
(0.100005 4.70026e-05 0)
(0.0999983 0.000132369 0)
(0.0999712 0.000241482 0)
(0.0999161 0.000346286 0)
(0.0998321 0.000424115 0)
(0.099724 0.000466868 0)
(0.0995998 0.000479814 0)
(0.0994677 0.000474618 0)
(0.0993339 0.000462622 0)
(0.0992025 0.000451388 0)
(0.099075 0.000444355 0)
(0.0989519 0.000442061 0)
(0.0988328 0.000443618 0)
(0.0987169 0.000447766 0)
(0.0986037 0.000453408 0)
(0.0984927 0.000459773 0)
(0.0983834 0.000466386 0)
(0.0982757 0.00047299 0)
(0.0981694 0.000479448 0)
(0.0980644 0.000485692 0)
(0.0979607 0.000491676 0)
(0.0978581 0.000497365 0)
(0.0977568 0.000502719 0)
(0.0976568 0.000507696 0)
(0.0975579 0.000512251 0)
(0.0974604 0.000516339 0)
(0.097364 0.000519919 0)
(0.097269 0.00052296 0)
(0.0971752 0.000525443 0)
(0.0970826 0.000527368 0)
(0.0969913 0.000528755 0)
(0.0969012 0.000529647 0)
(0.0968123 0.000530114 0)
(0.0967245 0.000530255 0)
(0.0966377 0.000530198 0)
(0.0965518 0.000530102 0)
(0.0964669 0.000530156 0)
(0.0963826 0.000530583 0)
(0.096299 0.000531636 0)
(0.0962158 0.000533602 0)
(0.0961329 0.000536798 0)
(0.0960501 0.000541574 0)
(0.0959672 0.000548316 0)
(0.0958839 0.000557442 0)
(0.0958002 0.000569406 0)
(0.0957157 0.000584704 0)
(0.0956301 0.000603869 0)
(0.0955433 0.000627482 0)
(0.095455 0.000656174 0)
(0.0953649 0.000690635 0)
(0.0952727 0.000731615 0)
(0.0951784 0.000779939 0)
(0.0950817 0.000836514 0)
(0.0949825 0.00090234 0)
(0.0948806 0.000978517 0)
(0.0947761 0.00106626 0)
(0.0946691 0.00116692 0)
(0.0945598 0.00128197 0)
(0.0944487 0.00141302 0)
(0.0943362 0.00156186 0)
(0.0942234 0.00173039 0)
(0.0941113 0.00192065 0)
(0.0940015 0.00213481 0)
(0.093896 0.0023751 0)
(0.0937975 0.00264377 0)
(0.093709 0.00294297 0)
(0.0936345 0.00327471 0)
(0.0935788 0.00364058 0)
(0.0935472 0.00404167 0)
(0.0935461 0.0044782 0)
(0.0935827 0.00494931 0)
(0.0936648 0.00545264 0)
(0.0938005 0.00598402 0)
(0.0939979 0.00653706 0)
(0.0942644 0.00710292 0)
(0.094606 0.00767009 0)
(0.0950261 0.00822461 0)
(0.0955249 0.00875047 0)
(0.0960981 0.00923074 0)
(0.0967363 0.00964912 0)
(0.100002 1.76613e-06 0)
(0.100006 4.71484e-05 0)
(0.100003 0.000138029 0)
(0.0999826 0.000256528 0)
(0.0999369 0.000373054 0)
(0.0998634 0.000462625 0)
(0.0997654 0.000515121 0)
(0.0996498 0.000534792 0)
(0.0995243 0.00053333 0)
(0.0993953 0.000522768 0)
(0.0992673 0.000511561 0)
(0.0991426 0.000503916 0)
(0.0990218 0.000500888 0)
(0.098905 0.000501868 0)
(0.0987916 0.000505697 0)
(0.098681 0.000511279 0)
(0.0985727 0.000517804 0)
(0.0984665 0.000524745 0)
(0.0983618 0.000531797 0)
(0.0982587 0.000538788 0)
(0.0981569 0.000545621 0)
(0.0980564 0.000552234 0)
(0.0979571 0.000558578 0)
(0.0978589 0.000564607 0)
(0.097762 0.000570274 0)
(0.0976662 0.000575533 0)
(0.0975715 0.00058034 0)
(0.097478 0.000584655 0)
(0.0973855 0.000588452 0)
(0.0972942 0.000591719 0)
(0.0972039 0.000594462 0)
(0.0971146 0.000596707 0)
(0.0970263 0.000598508 0)
(0.0969389 0.000599946 0)
(0.0968523 0.00060113 0)
(0.0967665 0.000602203 0)
(0.0966813 0.000603335 0)
(0.0965967 0.000604734 0)
(0.0965125 0.000606637 0)
(0.0964286 0.000609316 0)
(0.0963448 0.000613074 0)
(0.0962611 0.00061825 0)
(0.0961773 0.000625212 0)
(0.0960932 0.000634367 0)
(0.0960086 0.00064615 0)
(0.0959234 0.000661037 0)
(0.0958374 0.000679537 0)
(0.0957505 0.000702197 0)
(0.0956624 0.00072961 0)
(0.0955731 0.000762408 0)
(0.0954824 0.000801278 0)
(0.0953902 0.000846958 0)
(0.0952964 0.000900245 0)
(0.0952011 0.000962005 0)
(0.0951043 0.00103317 0)
(0.0950061 0.00111476 0)
(0.0949068 0.00120785 0)
(0.0948067 0.00131363 0)
(0.0947063 0.00143336 0)
(0.0946064 0.00156838 0)
(0.0945077 0.00172009 0)
(0.0944115 0.00188997 0)
(0.0943192 0.0020795 0)
(0.0942326 0.00229016 0)
(0.0941539 0.00252337 0)
(0.0940857 0.00278041 0)
(0.0940312 0.00306234 0)
(0.0939938 0.0033699 0)
(0.0939778 0.00370332 0)
(0.0939876 0.00406223 0)
(0.0940283 0.00444547 0)
(0.0941052 0.00485087 0)
(0.0942236 0.00527511 0)
(0.0943889 0.00571352 0)
(0.0946059 0.00616003 0)
(0.0948785 0.00660709 0)
(0.0952092 0.0070458 0)
(0.095599 0.00746613 0)
(0.0960464 0.00785742 0)
(0.0965472 0.00820905 0)
(0.0970948 0.00851128 0)
(0.100002 1.14367e-07 0)
(0.100007 4.64452e-05 0)
(0.100006 0.000142115 0)
(0.0999914 0.000269414 0)
(0.0999536 0.000397537 0)
(0.0998896 0.000499305 0)
(0.0998012 0.000562451 0)
(0.0996943 0.000589937 0)
(0.0995759 0.000593221 0)
(0.0994527 0.000584866 0)
(0.0993291 0.000574171 0)
(0.0992079 0.000566148 0)
(0.0990902 0.000562443 0)
(0.0989763 0.000562795 0)
(0.0988657 0.000566205 0)
(0.0987581 0.000571619 0)
(0.0986529 0.000578205 0)
(0.0985497 0.000585397 0)
(0.0984483 0.000592843 0)
(0.0983484 0.000600334 0)
(0.0982499 0.000607745 0)
(0.0981526 0.000614994 0)
(0.0980565 0.000622017 0)
(0.0979616 0.000628761 0)
(0.0978677 0.000635176 0)
(0.0977749 0.000641214 0)
(0.0976832 0.000646831 0)
(0.0975924 0.000651994 0)
(0.0975025 0.000656681 0)
(0.0974136 0.000660886 0)
(0.0973255 0.000664623 0)
(0.0972382 0.000667927 0)
(0.0971517 0.000670861 0)
(0.0970657 0.000673517 0)
(0.0969804 0.000676014 0)
(0.0968955 0.000678506 0)
(0.096811 0.000681176 0)
(0.0967269 0.000684242 0)
(0.0966428 0.000687956 0)
(0.0965589 0.000692601 0)
(0.0964749 0.000698495 0)
(0.0963907 0.000705987 0)
(0.0963063 0.000715459 0)
(0.0962214 0.000727327 0)
(0.096136 0.000742037 0)
(0.09605 0.000760068 0)
(0.0959633 0.000781932 0)
(0.0958758 0.000808176 0)
(0.0957874 0.000839379 0)
(0.0956981 0.000876159 0)
(0.0956079 0.000919173 0)
(0.0955169 0.000969118 0)
(0.095425 0.00102673 0)
(0.0953325 0.0010928 0)
(0.0952396 0.00116816 0)
(0.0951466 0.00125369 0)
(0.0950539 0.00135031 0)
(0.0949621 0.00145897 0)
(0.0948719 0.00158069 0)
(0.0947842 0.00171647 0)
(0.0947001 0.00186733 0)
(0.0946209 0.00203428 0)
(0.0945481 0.00221823 0)
(0.0944837 0.00242005 0)
(0.0944296 0.0026404 0)
(0.0943885 0.00287976 0)
(0.094363 0.0031383 0)
(0.0943561 0.00341581 0)
(0.0943714 0.00371162 0)
(0.0944122 0.00402444 0)
(0.0944822 0.00435235 0)
(0.0945851 0.00469264 0)
(0.0947243 0.00504177 0)
(0.0949031 0.00539535 0)
(0.0951239 0.0057481 0)
(0.0953885 0.006094 0)
(0.0956976 0.00642639 0)
(0.0960506 0.00673822 0)
(0.0964456 0.00702239 0)
(0.096879 0.00727214 0)
(0.0973459 0.00748151 0)
(0.100002 -1.75615e-06 0)
(0.100007 4.50557e-05 0)
(0.100009 0.000144889 0)
(0.0999977 0.000280428 0)
(0.0999664 0.00041993 0)
(0.0999105 0.000534165 0)
(0.099831 0.000608658 0)
(0.0997326 0.000644882 0)
(0.0996218 0.000653836 0)
(0.0995049 0.00064845 0)
(0.0993865 0.000638801 0)
(0.0992697 0.00063071 0)
(0.0991558 0.000626462 0)
(0.0990453 0.000626205 0)
(0.098938 0.000629152 0)
(0.0988336 0.000634331 0)
(0.0987316 0.00064091 0)
(0.0986318 0.000648295 0)
(0.0985337 0.000656096 0)
(0.0984371 0.000664068 0)
(0.0983418 0.000672057 0)
(0.0982478 0.00067996 0)
(0.098155 0.000687701 0)
(0.0980631 0.000695216 0)
(0.0979723 0.000702452 0)
(0.0978824 0.00070936 0)
(0.0977935 0.0007159 0)
(0.0977053 0.000722042 0)
(0.0976179 0.00072777 0)
(0.0975313 0.000733086 0)
(0.0974453 0.000738012 0)
(0.0973599 0.000742592 0)
(0.097275 0.000746897 0)
(0.0971906 0.000751028 0)
(0.0971064 0.000755114 0)
(0.0970225 0.000759317 0)
(0.0969388 0.00076383 0)
(0.0968552 0.000768879 0)
(0.0967715 0.000774723 0)
(0.0966877 0.000781652 0)
(0.0966037 0.000789991 0)
(0.0965195 0.000800093 0)
(0.0964348 0.000812345 0)
(0.0963497 0.000827159 0)
(0.0962642 0.000844981 0)
(0.0961781 0.000866281 0)
(0.0960914 0.000891558 0)
(0.0960042 0.000921337 0)
(0.0959164 0.00095617 0)
(0.0958282 0.000996634 0)
(0.0957397 0.00104333 0)
(0.0956509 0.00109689 0)
(0.0955622 0.00115797 0)
(0.0954738 0.00122724 0)
(0.095386 0.0013054 0)
(0.0952995 0.00139316 0)
(0.0952146 0.00149124 0)
(0.0951322 0.00160037 0)
(0.095053 0.00172125 0)
(0.0949781 0.00185456 0)
(0.0949087 0.00200094 0)
(0.094846 0.00216092 0)
(0.0947916 0.00233496 0)
(0.0947473 0.00252333 0)
(0.0947149 0.00272613 0)
(0.0946967 0.00294319 0)
(0.0946949 0.00317404 0)
(0.0947119 0.00341788 0)
(0.0947504 0.00367344 0)
(0.0948127 0.00393903 0)
(0.0949015 0.00421242 0)
(0.095019 0.00449085 0)
(0.0951674 0.00477102 0)
(0.0953482 0.0050491 0)
(0.0955626 0.00532081 0)
(0.0958111 0.00558152 0)
(0.0960934 0.00582638 0)
(0.0964083 0.00605046 0)
(0.0967538 0.00624904 0)
(0.097127 0.00641774 0)
(0.0975242 0.00655283 0)
(0.100002 -3.78937e-06 0)
(0.100007 4.31508e-05 0)
(0.10001 0.000146642 0)
(0.100002 0.00028992 0)
(0.0999756 0.000440523 0)
(0.0999267 0.000567326 0)
(0.0998552 0.000653648 0)