/*--------------------------------*- C++ -*----------------------------------*\
| =========                 |                                                 |
| \\      /  F ield         | OpenFOAM: The Open Source CFD Toolbox           |
|  \\    /   O peration     | Version:  2106                                  |
|   \\  /    A nd           | Website:  www.openfoam.com                      |
|    \\/     M anipulation  |                                                 |
\*---------------------------------------------------------------------------*/
FoamFile
{
    version     2.0;
    format      ascii;
    arch        "LSB;label=32;scalar=64";
    class       volVectorField;
    location    "0.6";
    object      U;
}
// * * * * * * * * * * * * * * * * * * * * * * * * * * * * * * * * * * * * * //

dimensions      [0 1 -1 0 0 0 0];

internalField   nonuniform List<vector> 
12013
(
(0.0999975 1.33905e-06 0)
(0.0999738 4.21408e-06 0)
(0.0999108 8.54609e-06 0)
(0.0997997 1.33453e-05 0)
(0.0996443 1.73656e-05 0)
(0.0994594 1.9815e-05 0)
(0.0992633 2.06521e-05 0)
(0.09907 2.03836e-05 0)
(0.0988864 1.96615e-05 0)
(0.0987135 1.89864e-05 0)
(0.098549 1.86089e-05 0)
(0.0983895 1.85748e-05 0)
(0.098232 1.88193e-05 0)
(0.0980748 1.9245e-05 0)
(0.0979166 1.97678e-05 0)
(0.0977573 2.0331e-05 0)
(0.0975966 2.09052e-05 0)
(0.0974348 2.14783e-05 0)
(0.0972719 2.20498e-05 0)
(0.0971081 2.26246e-05 0)
(0.0969434 2.32088e-05 0)
(0.0967778 2.38097e-05 0)
(0.0966113 2.44327e-05 0)
(0.0964438 2.50844e-05 0)
(0.0962752 2.57693e-05 0)
(0.0961054 2.64917e-05 0)
(0.0959342 2.72557e-05 0)
(0.0957616 2.80645e-05 0)
(0.0955873 2.89213e-05 0)
(0.0954112 2.98284e-05 0)
(0.0952331 3.07883e-05 0)
(0.0950528 3.18028e-05 0)
(0.0948703 3.28741e-05 0)
(0.0946853 3.40038e-05 0)
(0.0944978 3.51939e-05 0)
(0.0943074 3.64467e-05 0)
(0.0941142 3.77648e-05 0)
(0.0939179 3.91514e-05 0)
(0.0937184 4.06096e-05 0)
(0.0935156 4.21447e-05 0)
(0.0933092 4.37619e-05 0)
(0.0930991 4.54682e-05 0)
(0.0928851 4.72712e-05 0)
(0.092667 4.91803e-05 0)
(0.0924445 5.12065e-05 0)
(0.0922174 5.33629e-05 0)
(0.0919854 5.5665e-05 0)
(0.091748 5.81303e-05 0)
(0.0915049 6.07801e-05 0)
(0.0912557 6.36391e-05 0)
(0.0909997 6.67359e-05 0)
(0.0907365 7.01049e-05 0)
(0.0904652 7.37867e-05 0)
(0.0901851 7.78291e-05 0)
(0.0898953 8.22894e-05 0)
(0.0895946 8.72368e-05 0)
(0.0892818 9.27534e-05 0)
(0.0889554 9.89403e-05 0)
(0.0886136 0.00010592 0)
(0.0882544 0.000113842 0)
(0.0878753 0.000122895 0)
(0.0874734 0.000133312 0)
(0.0870452 0.000145388 0)
(0.0865864 0.0001595 0)
(0.0860918 0.000176135 0)
(0.0855549 0.000195929 0)
(0.0849678 0.000219727 0)
(0.0843203 0.000248663 0)
(0.0835994 0.000284293 0)
(0.0827884 0.000328779 0)
(0.0818651 0.00038519 0)
(0.0807998 0.000457964 0)
(0.0795522 0.000553649 0)
(0.0780661 0.000682111 0)
(0.0762619 0.000858535 0)
(0.0740253 0.00110676 0)
(0.0711883 0.00146504 0)
(0.0674877 0.00199779 0)
(0.0625199 0.00283335 0)
(0.0558228 0.00432911 0)
(0.0483588 0.00809643 0)
(0.0999979 4.06698e-06 0)
(0.0999747 1.28727e-05 0)
(0.0999127 2.6148e-05 0)
(0.0998028 4.08681e-05 0)
(0.0996485 5.32151e-05 0)
(0.0994647 6.0753e-05 0)
(0.0992693 6.33481e-05 0)
(0.0990764 6.2547e-05 0)
(0.098893 6.03469e-05 0)
(0.0987202 5.82833e-05 0)
(0.0985557 5.7127e-05 0)
(0.0983962 5.70204e-05 0)
(0.0982388 5.77658e-05 0)
(0.0980816 5.90665e-05 0)
(0.0979236 6.06652e-05 0)
(0.0977645 6.23896e-05 0)
(0.0976041 6.41476e-05 0)
(0.0974425 6.59037e-05 0)
(0.09728 6.76557e-05 0)
(0.0971165 6.9418e-05 0)
(0.0969521 7.12101e-05 0)
(0.0967868 7.30529e-05 0)
(0.0966206 7.49654e-05 0)
(0.0964534 7.6965e-05 0)
(0.0962851 7.9067e-05 0)
(0.0961156 8.12841e-05 0)
(0.0959448 8.36287e-05 0)
(0.0957725 8.61108e-05 0)
(0.0955985 8.87398e-05 0)
(0.0954227 9.15233e-05 0)
(0.0952449 9.44685e-05 0)
(0.095065 9.75815e-05 0)
(0.0948828 0.000100868 0)
(0.0946981 0.000104333 0)
(0.0945109 0.000107984 0)
(0.0943209 0.000111827 0)
(0.094128 0.00011587 0)
(0.0939321 0.000120122 0)
(0.093733 0.000124594 0)
(0.0935305 0.000129301 0)
(0.0933246 0.000134261 0)
(0.0931149 0.000139492 0)
(0.0929014 0.000145019 0)
(0.0926838 0.000150871 0)
(0.0924619 0.000157082 0)
(0.0922353 0.000163691 0)
(0.0920039 0.000170746 0)
(0.0917672 0.000178299 0)
(0.0915248 0.000186417 0)
(0.0912763 0.000195173 0)
(0.0910212 0.000204657 0)
(0.0907589 0.000214972 0)
(0.0904887 0.000226241 0)
(0.0902097 0.000238611 0)
(0.0899212 0.000252256 0)
(0.0896219 0.000267385 0)
(0.0893108 0.000284248 0)
(0.0889862 0.000303151 0)
(0.0886467 0.000324464 0)
(0.08829 0.000348643 0)
(0.087914 0.000376252 0)
(0.0875157 0.000407995 0)
(0.0870919 0.000444759 0)
(0.0866385 0.000487674 0)
(0.0861506 0.000538194 0)
(0.0856222 0.000598211 0)
(0.0850458 0.000670226 0)
(0.0844121 0.000757584 0)
(0.0837096 0.000864832 0)
(0.0829233 0.000998247 0)
(0.0820339 0.00116664 0)
(0.0810166 0.00138258 0)
(0.0798384 0.00166433 0)
(0.0784554 0.00203875 0)
(0.0768097 0.00254594 0)
(0.0748244 0.00324614 0)
(0.0724007 0.0042292 0)
(0.0694103 0.00562674 0)
(0.0657142 0.00762628 0)
(0.061372 0.0104312 0)
(0.0575387 0.0138633 0)
(0.0999981 6.84522e-06 0)
(0.0999758 2.19087e-05 0)
(0.0999157 4.46324e-05 0)
(0.0998083 6.98942e-05 0)
(0.099657 9.11541e-05 0)
(0.0994757 0.00010421 0)
(0.0992823 0.000108797 0)
(0.0990905 0.000107535 0)
(0.0989076 0.000103835 0)
(0.0987349 0.00010033 0)
(0.0985703 9.83521e-05 0)
(0.0984107 9.8157e-05 0)
(0.0982534 9.9415e-05 0)
(0.0980964 0.000101625 0)
(0.0979388 0.00010435 0)
(0.0977801 0.000107295 0)
(0.0976202 0.000110302 0)
(0.0974593 0.000113311 0)
(0.0972973 0.000116316 0)
(0.0971345 0.000119342 0)
(0.0969708 0.000122421 0)
(0.0968062 0.00012559 0)
(0.0966407 0.00012888 0)
(0.0964742 0.000132319 0)
(0.0963066 0.000135936 0)
(0.0961378 0.00013975 0)
(0.0959676 0.000143784 0)
(0.0957959 0.000148054 0)
(0.0956226 0.000152577 0)
(0.0954474 0.000157364 0)
(0.0952703 0.000162429 0)
(0.0950911 0.000167781 0)
(0.0949095 0.000173431 0)
(0.0947256 0.000179388 0)
(0.094539 0.000185663 0)
(0.0943498 0.000192266 0)
(0.0941576 0.000199212 0)
(0.0939625 0.000206516 0)
(0.0937642 0.000214198 0)
(0.0935626 0.000222283 0)
(0.0933575 0.000230798 0)
(0.0931488 0.000239779 0)
(0.0929362 0.000249267 0)
(0.0927196 0.00025931 0)
(0.0924988 0.000269967 0)
(0.0922734 0.000281304 0)
(0.0920432 0.000293402 0)
(0.0918078 0.000306353 0)
(0.0915668 0.000320265 0)
(0.0913199 0.000335267 0)
(0.0910664 0.000351509 0)
(0.0908059 0.000369166 0)
(0.0905377 0.000388447 0)
(0.090261 0.000409599 0)
(0.0899749 0.000432916 0)
(0.0896785 0.000458749 0)
(0.0893705 0.000487521 0)
(0.0890496 0.000519742 0)
(0.0887142 0.000556032 0)
(0.0883624 0.000597151 0)
(0.087992 0.000644036 0)
(0.0876006 0.000697852 0)
(0.0871849 0.00076006 0)
(0.0867414 0.000832509 0)
(0.0862656 0.000917563 0)
(0.0857523 0.00101828 0)
(0.0851951 0.00113865 0)
(0.0845862 0.00128396 0)
(0.0839159 0.00146131 0)
(0.0831726 0.00168029 0)
(0.0823416 0.00195414 0)
(0.0814051 0.0023012 0)
(0.0803413 0.00274724 0)
(0.0791244 0.00332853 0)
(0.0777247 0.00409604 0)
(0.0761123 0.00512012 0)
(0.0742645 0.00649344 0)
(0.0721807 0.00832598 0)
(0.0699214 0.0107185 0)
(0.0677245 0.0136492 0)
(0.06621 0.0165419 0)
(0.0999983 9.63194e-06 0)
(0.0999773 3.11942e-05 0)
(0.0999199 6.37604e-05 0)
(0.0998166 0.000100116 0)
(0.09967 0.000130884 0)
(0.0994931 0.000149977 0)
(0.099303 0.00015692 0)
(0.0991132 0.000155397 0)
(0.0989311 0.00015027 0)
(0.0987586 0.000145322 0)
(0.0985939 0.000142491 0)
(0.0984342 0.000142179 0)
(0.0982769 0.000143938 0)
(0.0981202 0.000147067 0)
(0.0979631 0.000150944 0)
(0.0978052 0.000155152 0)
(0.0976462 0.000159462 0)
(0.0974862 0.000163785 0)
(0.0973253 0.000168113 0)
(0.0971636 0.000172477 0)
(0.097001 0.000176925 0)
(0.0968375 0.000181505 0)
(0.0966731 0.000186263 0)
(0.0965077 0.00019124 0)
(0.0963412 0.000196474 0)
(0.0961735 0.000201995 0)
(0.0960043 0.000207832 0)
(0.0958337 0.000214011 0)
(0.0956614 0.000220553 0)
(0.0954874 0.000227478 0)
(0.0953113 0.000234801 0)
(0.0951331 0.000242539 0)
(0.0949527 0.000250705 0)
(0.0947698 0.000259312 0)
(0.0945844 0.000268376 0)
(0.0943963 0.000277912 0)
(0.0942053 0.000287941 0)
(0.0940114 0.000298485 0)
(0.0938144 0.000309572 0)
(0.0936142 0.000321236 0)
(0.0934105 0.00033352 0)
(0.0932032 0.000346471 0)
(0.0929922 0.00036015 0)
(0.0927773 0.000374626 0)
(0.0925582 0.00038998 0)
(0.0923346 0.00040631 0)
(0.0921063 0.000423728 0)
(0.091873 0.000442366 0)
(0.0916343 0.000462378 0)
(0.0913898 0.000483945 0)
(0.091139 0.00050728 0)
(0.0908814 0.000532631 0)
(0.0906164 0.000560293 0)
(0.0903432 0.000590613 0)
(0.090061 0.000624004 0)
(0.0897689 0.000660958 0)
(0.0894659 0.000702064 0)
(0.0891506 0.000748033 0)
(0.0888217 0.000799725 0)
(0.0884774 0.000858187 0)
(0.0881158 0.000924706 0)
(0.0877347 0.00100087 0)
(0.0873315 0.00108866 0)
(0.0869029 0.00119056 0)
(0.0864455 0.00130971 0)
(0.0859549 0.00145013 0)
(0.0854261 0.001617 0)
(0.0848533 0.00181707 0)
(0.0842296 0.00205918 0)
(0.0835473 0.00235506 0)
(0.0827974 0.00272036 0)
(0.0819704 0.00317601 0)
(0.0810568 0.00375002 0)
(0.0800486 0.00447955 0)
(0.0789424 0.00541274 0)
(0.0777456 0.00660889 0)
(0.0764858 0.00813326 0)
(0.0752259 0.0100388 0)
(0.0740844 0.0123215 0)
(0.0732573 0.0148164 0)
(0.0729802 0.0169802 0)
(0.0999985 1.2398e-05 0)
(0.099979 4.05654e-05 0)
(0.0999253 8.32186e-05 0)
(0.0998277 0.000131114 0)
(0.0996877 0.000171982 0)
(0.0995171 0.00019773 0)
(0.0993317 0.000207555 0)
(0.0991448 0.000206137 0)
(0.0989641 0.000199778 0)
(0.0987918 0.000193453 0)
(0.098627 0.000189759 0)
(0.0984672 0.000189288 0)
(0.0983101 0.000191508 0)
(0.0981539 0.00019553 0)
(0.0979976 0.000200558 0)
(0.0978407 0.000206047 0)
(0.097683 0.000211697 0)
(0.0975244 0.000217386 0)
(0.097365 0.000223099 0)
(0.0972048 0.000228875 0)
(0.0970437 0.000234772 0)
(0.0968818 0.000240852 0)
(0.096719 0.000247174 0)
(0.0965552 0.000253791 0)
(0.0963902 0.00026075 0)
(0.096224 0.000268092 0)
(0.0960564 0.000275853 0)
(0.0958873 0.000284067 0)
(0.0957165 0.000292761 0)
(0.0955439 0.000301961 0)
(0.0953694 0.000311687 0)
(0.0951927 0.000321958 0)
(0.0950138 0.000332795 0)
(0.0948325 0.000344213 0)
(0.0946487 0.000356232 0)
(0.0944623 0.000368874 0)
(0.094273 0.000382164 0)
(0.0940809 0.000396132 0)
(0.0938857 0.000410815 0)
(0.0936874 0.000426258 0)
(0.0934857 0.000442514 0)
(0.0932806 0.000459649 0)
(0.0930718 0.000477738 0)
(0.0928592 0.000496873 0)
(0.0926425 0.000517161 0)
(0.0924216 0.000538727 0)
(0.0921961 0.000561717 0)
(0.0919658 0.000586302 0)
(0.0917303 0.000612682 0)
(0.0914893 0.00064109 0)
(0.0912423 0.000671799 0)
(0.0909888 0.000705131 0)
(0.0907282 0.000741462 0)
(0.09046 0.000781236 0)
(0.0901834 0.000824979 0)
(0.0898975 0.000873316 0)
(0.0896014 0.000926993 0)
(0.089294 0.000986901 0)
(0.0889742 0.00105412 0)
(0.0886404 0.00112995 0)
(0.0882911 0.00121597 0)
(0.0879243 0.00131415 0)
(0.0875382 0.00142686 0)
(0.0871301 0.00155709 0)
(0.0866975 0.00170856 0)
(0.0862373 0.00188594 0)
(0.0857462 0.00209515 0)
(0.0852206 0.00234373 0)
(0.0846568 0.0026413 0)
(0.084051 0.00300024 0)
(0.0834003 0.00343641 0)
(0.082703 0.00397009 0)
(0.0819601 0.00462685 0)
(0.0811777 0.00543817 0)
(0.0803704 0.00644094 0)
(0.0795662 0.0076742 0)
(0.0788135 0.00917018 0)
(0.0781868 0.0109343 0)
(0.0777888 0.012908 0)
(0.0777347 0.0149084 0)
(0.0780841 0.0165583 0)
(0.0999986 1.50985e-05 0)
(0.099981 4.9828e-05 0)
(0.0999318 0.000102633 0)
(0.0998414 0.00016238 0)
(0.0997098 0.00021392 0)
(0.0995472 0.000247046 0)
(0.0993681 0.00026046 0)
(0.0991851 0.000259698 0)
(0.0990064 0.000252452 0)
(0.0988348 0.0002449 0)
(0.09867 0.00024036 0)
(0.0985102 0.000239679 0)
(0.0983533 0.000242287 0)
(0.0981978 0.000247141 0)
(0.0980426 0.000253284 0)
(0.0978871 0.000260044 0)
(0.0977311 0.00026705 0)
(0.0975743 0.000274142 0)
(0.0974169 0.000281296 0)
(0.0972587 0.000288552 0)
(0.0970997 0.000295978 0)
(0.0969399 0.000303649 0)
(0.0967791 0.000311633 0)
(0.0966173 0.000319996 0)
(0.0964544 0.000328794 0)
(0.0962902 0.000338076 0)
(0.0961246 0.000347888 0)
(0.0959575 0.000358268 0)
(0.0957887 0.00036925 0)
(0.0956181 0.000380866 0)
(0.0954455 0.000393141 0)
(0.0952709 0.000406098 0)
(0.095094 0.00041976 0)
(0.0949148 0.000434149 0)
(0.0947332 0.000449288 0)
(0.0945489 0.000465204 0)
(0.094362 0.000481928 0)
(0.0941722 0.000499497 0)
(0.0939795 0.000517958 0)
(0.0937837 0.000537365 0)
(0.0935847 0.000557785 0)
(0.0933823 0.000579298 0)
(0.0931765 0.000601998 0)
(0.092967 0.000625997 0)
(0.0927536 0.000651426 0)
(0.0925362 0.000678438 0)
(0.0923145 0.000707212 0)
(0.0920882 0.000737958 0)
(0.091857 0.000770918 0)
(0.0916206 0.000806376 0)
(0.0913786 0.000844662 0)
(0.0911305 0.000886165 0)
(0.090876 0.000931336 0)
(0.0906144 0.00098071 0)
(0.0903451 0.00103491 0)
(0.0900674 0.00109469 0)
(0.0897805 0.00116091 0)
(0.0894836 0.00123464 0)
(0.0891757 0.00131711 0)
(0.0888556 0.00140984 0)
(0.0885222 0.00151465 0)
(0.0881741 0.00163373 0)
(0.0878098 0.00176975 0)
(0.0874278 0.00192601 0)
(0.0870265 0.00210651 0)
(0.0866042 0.00231622 0)
(0.0861592 0.00256126 0)
(0.0856905 0.00284921 0)
(0.0851971 0.00318947 0)
(0.0846792 0.00359362 0)
(0.0841388 0.00407583 0)
(0.0835803 0.00465324 0)
(0.0830122 0.00534595 0)
(0.0824491 0.00617649 0)
(0.081914 0.00716795 0)
(0.0814415 0.00833959 0)
(0.08108 0.00969823 0)
(0.0808916 0.0112233 0)
(0.080945 0.0128446 0)
(0.081295 0.0144164 0)
(0.0819355 0.0157054 0)
(0.0999988 1.76814e-05 0)
(0.0999831 5.87757e-05 0)
(0.0999391 0.000121599 0)
(0.099857 0.000193349 0)
(0.0997355 0.000256093 0)
(0.0995826 0.000297413 0)
(0.0994112 0.000315305 0)
(0.0992333 0.000315954 0)
(0.0990572 0.000308325 0)
(0.0988867 0.000299799 0)
(0.0987222 0.00029447 0)
(0.0985627 0.000293521 0)
(0.0984063 0.000296416 0)
(0.0982518 0.000302005 0)
(0.098098 0.000309189 0)
(0.0979443 0.000317182 0)
(0.0977903 0.000325537 0)
(0.0976359 0.000334055 0)
(0.0974809 0.000342694 0)
(0.0973252 0.000351493 0)
(0.0971688 0.000360527 0)
(0.0970116 0.000369878 0)
(0.0968534 0.000379626 0)
(0.0966942 0.000389844 0)
(0.0965338 0.000400598 0)
(0.0963721 0.000411944 0)
(0.096209 0.000423936 0)
(0.0960444 0.000436617 0)
(0.095878 0.000450028 0)
(0.0957099 0.000464203 0)
(0.0955399 0.000479173 0)
(0.0953678 0.000494966 0)
(0.0951935 0.000511606 0)
(0.0950169 0.00052912 0)
(0.094838 0.000547537 0)
(0.0946565 0.000566887 0)
(0.0944724 0.000587207 0)
(0.0942856 0.000608543 0)
(0.094096 0.000630947 0)
(0.0939035 0.000654487 0)
(0.0937079 0.00067924 0)
(0.0935091 0.000705301 0)
(0.093307 0.000732782 0)
(0.0931015 0.000761814 0)
(0.0928923 0.000792551 0)
(0.0926793 0.000825174 0)
(0.0924623 0.00085989 0)
(0.0922411 0.000896945 0)
(0.0920154 0.000936621 0)
(0.0917848 0.000979247 0)
(0.0915492 0.0010252 0)
(0.0913081 0.00107494 0)
(0.0910612 0.00112897 0)
(0.090808 0.00118791 0)
(0.090548 0.00125246 0)
(0.0902807 0.00132346 0)
(0.0900054 0.00140189 0)
(0.0897216 0.00148892 0)
(0.0894286 0.00158591 0)
(0.0891256 0.00169452 0)
(0.0888118 0.00181667 0)
(0.0884865 0.0019547 0)
(0.0881489 0.0021114 0)
(0.0877983 0.00229012 0)
(0.0874341 0.00249488 0)
(0.087056 0.0027305 0)
(0.0866642 0.00300281 0)
(0.0862593 0.00331874 0)
(0.0858433 0.00368655 0)
(0.0854192 0.00411597 0)
(0.0849924 0.00461822 0)
(0.0845712 0.00520592 0)
(0.084168 0.00589262 0)
(0.0838005 0.00669161 0)
(0.0834929 0.00761375 0)
(0.0832773 0.00866361 0)
(0.0831926 0.00983318 0)
(0.0832822 0.0110931 0)
(0.0835856 0.0123819 0)
(0.0841231 0.0135983 0)
(0.0848714 0.0146056 0)
(0.0999989 2.00976e-05 0)
(0.0999854 6.7215e-05 0)
(0.099947 0.000139725 0)
(0.0998739 0.000223455 0)
(0.0997635 0.00029787 0)
(0.0996217 0.000348267 0)
(0.0994592 0.000371685 0)
(0.0992875 0.00037469 0)
(0.099115 0.000367352 0)
(0.0989462 0.000358214 0)
(0.0987826 0.000352205 0)
(0.0986237 0.000350939 0)
(0.0984682 0.000354002 0)
(0.098315 0.000360195 0)
(0.098163 0.000368313 0)
(0.0980115 0.000377472 0)
(0.0978601 0.000387146 0)
(0.0977084 0.000397094 0)
(0.0975563 0.000407252 0)
(0.0974036 0.000417651 0)
(0.0972503 0.000428368 0)
(0.0970961 0.00043949 0)
(0.0969409 0.000451103 0)
(0.0967848 0.000463288 0)
(0.0966274 0.000476118 0)
(0.0964687 0.000489656 0)
(0.0963086 0.000503959 0)
(0.096147 0.000519078 0)
(0.0959837 0.000535057 0)
(0.0958185 0.000551934 0)
(0.0956515 0.000569744 0)
(0.0954825 0.000588517 0)
(0.0953113 0.000608282 0)
(0.095138 0.00062907 0)
(0.0949623 0.00065091 0)
(0.0947842 0.000673841 0)
(0.0946036 0.000697904 0)
(0.0944205 0.00072315 0)
(0.0942347 0.000749643 0)
(0.0940461 0.000777457 0)
(0.0938546 0.000806682 0)
(0.0936602 0.000837427 0)
(0.0934627 0.000869818 0)
(0.0932621 0.000904005 0)
(0.093058 0.000940163 0)
(0.0928505 0.000978496 0)
(0.0926393 0.00101924 0)
(0.0924243 0.00106267 0)
(0.0922053 0.00110909 0)
(0.091982 0.00115889 0)
(0.0917542 0.00121248 0)
(0.0915217 0.00127035 0)
(0.0912841 0.00133307 0)
(0.0910411 0.0014013 0)
(0.0907924 0.00147582 0)
(0.0905377 0.00155752 0)
(0.0902765 0.00164744 0)
(0.0900086 0.00174682 0)
(0.0897334 0.00185706 0)
(0.0894507 0.00197987 0)
(0.0891602 0.00211719 0)
(0.0888616 0.00227136 0)
(0.088555 0.00244507 0)
(0.0882403 0.00264152 0)
(0.087918 0.00286443 0)
(0.0875891 0.00311815 0)
(0.087255 0.00340771 0)
(0.0869181 0.00373891 0)
(0.0865819 0.00411826 0)
(0.0862516 0.00455303 0)
(0.0859345 0.00505099 0)
(0.0856404 0.00562007 0)
(0.0853824 0.00626764 0)
(0.0851777 0.00699934 0)
(0.0850474 0.00781725 0)
(0.0850165 0.00871711 0)
(0.0851128 0.00968468 0)
(0.0853629 0.0106914 0)
(0.0857869 0.0116907 0)
(0.0863887 0.0126167 0)
(0.0871453 0.0133912 0)
(0.099999 2.23127e-05 0)
(0.0999876 7.49921e-05 0)
(0.0999547 0.000156683 0)
(0.099891 0.000252199 0)
(0.0997923 0.000338655 0)
(0.0996623 0.00039903 0)
(0.0995099 0.000429139 0)
(0.0993454 0.000435605 0)
(0.0991775 0.000429383 0)
(0.0990113 0.000420109 0)
(0.0988493 0.000413597 0)
(0.0986916 0.00041199 0)
(0.0985375 0.000415096 0)
(0.0983861 0.000421742 0)
(0.0982363 0.000430665 0)
(0.0980874 0.000440895 0)
(0.097939 0.00045184 0)
(0.0977905 0.000463208 0)
(0.0976417 0.000474907 0)
(0.0974924 0.000486957 0)
(0.0973425 0.000499427 0)
(0.0971918 0.000512407 0)
(0.0970402 0.000525988 0)
(0.0968875 0.000540252 0)
(0.0967336 0.000555278 0)
(0.0965784 0.000571135 0)
(0.0964218 0.000587882 0)
(0.0962636 0.000605574 0)
(0.0961038 0.000624258 0)
(0.0959422 0.000643976 0)
(0.0957787 0.000664764 0)
(0.0956133 0.000686655 0)
(0.0954458 0.000709681 0)
(0.0952762 0.000733875 0)
(0.0951044 0.00075927 0)
(0.0949303 0.000785909 0)
(0.0947539 0.000813837 0)
(0.0945751 0.000843114 0)
(0.0943938 0.000873808 0)
(0.0942099 0.000906002 0)
(0.0940234 0.000939799 0)
(0.0938341 0.000975316 0)
(0.0936421 0.00101269 0)
(0.0934472 0.0010521 0)
(0.0932493 0.00109372 0)
(0.0930483 0.00113778 0)
(0.0928441 0.00118454 0)
(0.0926365 0.0012343 0)
(0.0924254 0.00128739 0)
(0.0922108 0.00134421 0)
(0.0919923 0.00140522 0)
(0.0917699 0.00147093 0)
(0.0915433 0.00154195 0)
(0.0913125 0.00161896 0)
(0.0910772 0.00170276 0)
(0.0908372 0.00179427 0)
(0.0905926 0.00189455 0)
(0.090343 0.00200482 0)
(0.0900886 0.00212649 0)
(0.0898292 0.00226119 0)
(0.0895652 0.00241078 0)
(0.0892968 0.00257742 0)
(0.0890245 0.00276358 0)
(0.0887492 0.00297207 0)
(0.0884722 0.00320607 0)
(0.0881952 0.00346917 0)
(0.0879208 0.00376533 0)
(0.0876524 0.00409886 0)
(0.0873945 0.00447434 0)
(0.0871532 0.00489644 0)
(0.086936 0.00536963 0)
(0.0867528 0.00589774 0)
(0.0866154 0.00648329 0)
(0.0865381 0.00712659 0)
(0.0865373 0.00782442 0)
(0.0866305 0.00856849 0)
(0.0868353 0.00934367 0)
(0.0871666 0.0101263 0)
(0.0876328 0.0108834 0)
(0.0882312 0.011574 0)
(0.088944 0.0121534 0)
(0.0999991 2.43133e-05 0)
(0.0999895 8.20181e-05 0)
(0.099962 0.000172252 0)
(0.0999072 0.000279207 0)
(0.0998202 0.000377959 0)
(0.0997023 0.000449175 0)
(0.0995606 0.000487182 0)
(0.0994043 0.000498315 0)
(0.099242 0.000494155 0)
(0.0990795 0.000485329 0)
(0.0989199 0.000478567 0)
(0.0987642 0.000476638 0)
(0.0986122 0.000479679 0)
(0.098463 0.00048663 0)
(0.098316 0.000496215 0)
(0.0981701 0.000507411 0)
(0.098025 0.000519562 0)
(0.09788 0.000532327 0)
(0.0977349 0.000545582 0)
(0.0975895 0.000559324 0)
(0.0974435 0.000573614 0)
(0.0972967 0.000588538 0)
(0.0971489 0.000604184 0)
(0.0970001 0.000620639 0)
(0.0968502 0.00063798 0)
(0.0966989 0.000656279 0)
(0.0965461 0.000675598 0)
(0.0963919 0.000695995 0)
(0.096236 0.000717515 0)
(0.0960783 0.000740203 0)
(0.0959189 0.000764096 0)
(0.0957576 0.000789229 0)
(0.0955943 0.000815636 0)
(0.0954291 0.000843349 0)
(0.0952617 0.000872409 0)
(0.0950923 0.000902857 0)
(0.0949206 0.000934745 0)
(0.0947468 0.000968136 0)
(0.0945707 0.0010031 0)
(0.0943922 0.00103974 0)
(0.0942114 0.00107816 0)
(0.0940282 0.00111848 0)
(0.0938425 0.00116085 0)
(0.0936543 0.00120546 0)
(0.0934635 0.0012525 0)
(0.0932701 0.00130222 0)
(0.0930739 0.00135487 0)
(0.092875 0.00141078 0)
(0.0926732 0.00147031 0)
(0.0924685 0.00153384 0)
(0.0922608 0.00160187 0)
(0.0920501 0.0016749 0)
(0.0918364 0.00175356 0)
(0.0916195 0.00183852 0)
(0.0913995 0.00193059 0)
(0.0911765 0.00203064 0)
(0.0909505 0.00213971 0)
(0.0907218 0.00225894 0)
(0.0904905 0.00238966 0)
(0.0902571 0.00253333 0)
(0.0900221 0.00269163 0)
(0.0897864 0.00286643 0)
(0.0895509 0.00305979 0)
(0.0893171 0.003274 0)
(0.0890868 0.00351153 0)
(0.0888624 0.00377506 0)
(0.0886471 0.00406733 0)
(0.0884445 0.00439114 0)
(0.0882597 0.00474918 0)
(0.0880984 0.00514378 0)
(0.0879679 0.0055767 0)
(0.0878765 0.00604868 0)
(0.087834 0.00655898 0)
(0.087851 0.00710475 0)
(0.087939 0.00768032 0)
(0.0881092 0.00827647 0)
(0.0883716 0.00887975 0)
(0.0887335 0.00947216 0)
(0.0891971 0.0100314 0)
(0.0897578 0.0105322 0)
(0.0904025 0.0109491 0)
(0.0999992 2.61114e-05 0)
(0.0999912 8.8283e-05 0)
(0.0999683 0.000186355 0)
(0.0999217 0.000304284 0)
(0.0998456 0.000415452 0)
(0.0997396 0.000498271 0)
(0.0996089 0.000545344 0)
(0.0994616 0.000562376 0)
(0.0993059 0.000561293 0)
(0.0991481 0.000553589 0)
(0.098992 0.000546913 0)
(0.0988392 0.000544747 0)
(0.09869 0.000547657 0)
(0.0985437 0.000554783 0)
(0.0983998 0.000564897 0)
(0.0982574 0.00057695 0)
(0.0981159 0.000590238 0)
(0.0979749 0.000604372 0)
(0.0978338 0.000619188 0)
(0.0976925 0.00063466 0)
(0.0975506 0.000650832 0)
(0.097408 0.000667778 0)
(0.0972645 0.000685585 0)
(0.09712 0.000704334 0)
(0.0969743 0.000724104 0)
(0.0968272 0.000744964 0)
(0.0966788 0.000766976 0)
(0.0965288 0.000790197 0)
(0.0963773 0.000814672 0)
(0.0962241 0.000840446 0)
(0.0960692 0.000867556 0)
(0.0959125 0.000896036 0)
(0.0957539 0.000925919 0)
(0.0955935 0.000957242 0)
(0.0954312 0.000990044 0)
(0.095267 0.00102437 0)
(0.0951008 0.00106027 0)
(0.0949326 0.00109782 0)
(0.0947624 0.00113709 0)
(0.0945901 0.00117817 0)
(0.0944158 0.00122119 0)
(0.0942394 0.00126627 0)
(0.0940609 0.00131358 0)
(0.0938804 0.00136328 0)
(0.0936977 0.0014156 0)
(0.0935128 0.00147077 0)
(0.0933258 0.00152907 0)
(0.0931367 0.00159082 0)
(0.0929455 0.00165637 0)
(0.0927521 0.00172612 0)
(0.0925566 0.00180053 0)
(0.0923592 0.00188013 0)
(0.0921598 0.0019655 0)
(0.0919585 0.00205729 0)
(0.0917557 0.00215624 0)
(0.0915515 0.00226319 0)
(0.0913461 0.00237905 0)
(0.0911401 0.00250486 0)
(0.090934 0.00264176 0)
(0.0907284 0.002791 0)
(0.0905243 0.00295395 0)
(0.0903228 0.00313211 0)
(0.0901252 0.00332706 0)
(0.0899334 0.00354045 0)
(0.0897496 0.00377401 0)
(0.0895762 0.00402942 0)
(0.0894167 0.00430829 0)
(0.0892748 0.00461203 0)
(0.0891551 0.0049417 0)
(0.0890627 0.00529783 0)
(0.0890037 0.00568019 0)
(0.0889848 0.00608754 0)
(0.089013 0.00651727 0)
(0.0890957 0.00696512 0)
(0.0892403 0.00742483 0)
(0.0894532 0.00788789 0)
(0.0897394 0.00834348 0)
(0.0901016 0.00877854 0)
(0.0905391 0.00917831 0)
(0.091047 0.00952733 0)
(0.091616 0.00981088 0)
(0.0999992 2.77419e-05 0)
(0.0999925 9.38551e-05 0)
(0.0999734 0.000199058 0)
(0.0999339 0.000327423 0)
(0.0998676 0.000450994 0)
(0.0997728 0.000546022 0)
(0.0996529 0.000603209 0)
(0.099515 0.000627316 0)
(0.0993669 0.000630342 0)
(0.0992149 0.000624492 0)
(0.0990634 0.000618317 0)
(0.0989144 0.000616073 0)
(0.0987687 0.00061885 0)
(0.098626 0.000626065 0)
(0.0984857 0.0006366 0)
(0.0983472 0.000649418 0)
(0.0982097 0.00066378 0)
(0.0980728 0.000679253 0)
(0.097936 0.000695635 0)
(0.0977991 0.000712869 0)
(0.0976616 0.000730977 0)
(0.0975235 0.000750021 0)
(0.0973845 0.000770075 0)
(0.0972445 0.000791216 0)
(0.0971033 0.000813518 0)
(0.0969609 0.000837045 0)
(0.096817 0.000861858 0)
(0.0966718 0.000888008 0)
(0.096525 0.00091554 0)
(0.0963766 0.000944496 0)
(0.0962266 0.000974909 0)
(0.096075 0.00100681 0)
(0.0959217 0.00104024 0)
(0.0957667 0.00107523 0)
(0.0956099 0.00111182 0)
(0.0954515 0.00115004 0)
(0.0952913 0.00118997 0)
(0.0951294 0.00123166 0)
(0.0949658 0.0012752 0)
(0.0948004 0.00132067 0)
(0.0946334 0.0013682 0)
(0.0944646 0.00141792 0)
(0.0942942 0.00146999 0)
(0.0941222 0.00152459 0)
(0.0939485 0.00158192 0)
(0.0937733 0.00164222 0)
(0.0935965 0.00170577 0)
(0.0934183 0.00177286 0)
(0.0932388 0.00184384 0)
(0.093058 0.00191909 0)
(0.0928761 0.00199905 0)
(0.0926932 0.0020842 0)
(0.0925096 0.00217506 0)
(0.0923256 0.00227224 0)
(0.0921414 0.00237639 0)
(0.0919574 0.00248821 0)
(0.0917743 0.00260851 0)
(0.0915925 0.00273812 0)
(0.0914128 0.00287796 0)
(0.0912362 0.00302902 0)
(0.0910638 0.0031923 0)
(0.0908968 0.00336886 0)
(0.090737 0.00355976 0)
(0.0905862 0.00376603 0)
(0.0904466 0.00398863 0)
(0.0903209 0.00422838 0)
(0.0902121 0.00448588 0)
(0.0901237 0.00476141 0)
(0.0900595 0.00505482 0)
(0.0900238 0.00536539 0)
(0.0900213 0.00569168 0)
(0.0900566 0.00603135 0)
(0.0901347 0.00638103 0)
(0.0902602 0.00673618 0)
(0.0904372 0.00709098 0)
(0.0906691 0.00743837 0)
(0.0909577 0.00777011 0)
(0.0913033 0.00807703 0)
(0.0917038 0.00834951 0)
(0.092155 0.00857802 0)
(0.0926499 0.00875394 0)
(0.0999993 2.92557e-05 0)
(0.0999935 9.88628e-05 0)
(0.0999774 0.000210543 0)
(0.0999437 0.000348787 0)
(0.0998858 0.000484624 0)
(0.099801 0.000592281 0)
(0.0996915 0.000660446 0)
(0.0995632 0.00069268 0)
(0.0994233 0.000700798 0)
(0.0992781 0.000697559 0)
(0.0991322 0.000692368 0)
(0.0989879 0.000690289 0)
(0.0988465 0.000693003 0)
(0.098708 0.000700283 0)
(0.0985718 0.000711176 0)
(0.0984375 0.000724693 0)
(0.0983043 0.000740081 0)
(0.0981718 0.000756872 0)
(0.0980396 0.000774825 0)
(0.0979072 0.00079385 0)
(0.0977744 0.000813944 0)
(0.0976409 0.000835151 0)
(0.0975066 0.00085753 0)
(0.0973714 0.000881148 0)
(0.097235 0.00090607 0)
(0.0970974 0.000932355 0)
(0.0969585 0.000960056 0)
(0.0968183 0.000989219 0)
(0.0966766 0.00101989 0)
(0.0965334 0.00105209 0)
(0.0963888 0.00108587 0)
(0.0962427 0.00112124 0)
(0.0960951 0.00115825 0)
(0.095946 0.00119691 0)
(0.0957953 0.00123728 0)
(0.0956432 0.00127938 0)
(0.0954897 0.00132329 0)
(0.0953347 0.00136905 0)
(0.0951783 0.00141674 0)
(0.0950205 0.00146647 0)
(0.0948615 0.00151834 0)
(0.0947011 0.00157249 0)
(0.0945396 0.00162905 0)
(0.0943769 0.00168821 0)
(0.0942132 0.00175015 0)
(0.0940485 0.00181512 0)
(0.093883 0.00188334 0)
(0.0937168 0.00195512 0)
(0.09355 0.00203075 0)
(0.0933829 0.00211058 0)
(0.0932157 0.002195 0)
(0.0930487 0.00228443 0)
(0.0928821 0.00237931 0)
(0.0927164 0.00248016 0)
(0.092552 0.0025875 0)
(0.0923894 0.00270191 0)
(0.0922294 0.00282399 0)
(0.0920726 0.00295438 0)
(0.09192 0.00309373 0)
(0.0917726 0.0032427 0)
(0.0916317 0.00340194 0)
(0.0914986 0.00357206 0)
(0.0913749 0.00375363 0)
(0.0912627 0.00394708 0)
(0.0911639 0.00415272 0)
(0.091081 0.00437064 0)
(0.0910165 0.00460067 0)
(0.0909734 0.00484229 0)
(0.0909547 0.00509455 0)
(0.0909636 0.005356 0)
(0.0910033 0.00562457 0)
(0.0910771 0.00589755 0)
(0.091188 0.00617152 0)
(0.0913386 0.00644228 0)
(0.0915308 0.00670496 0)
(0.091766 0.00695401 0)
(0.0920443 0.00718343 0)
(0.0923648 0.00738694 0)
(0.0927251 0.00755829 0)
(0.0931214 0.00769161 0)
(0.0935487 0.00778174 0)
(0.0999993 3.07087e-05 0)
(0.0999941 0.000103466 0)
(0.0999802 0.000221071 0)
(0.099951 0.000368654 0)
(0.0999002 0.000516523 0)
(0.0998242 0.000637036 0)
(0.0997244 0.000716824 0)
(0.0996056 0.000758062 0)
(0.0994744 0.00077216 0)
(0.0993366 0.000772275 0)
(0.0991971 0.000768595 0)
(0.0990585 0.000766996 0)
(0.0989221 0.000769801 0)
(0.0987883 0.000777193 0)
(0.0986567 0.000788435 0)
(0.0985269 0.000802623 0)
(0.0983983 0.000819013 0)
(0.0982705 0.000837113 0)
(0.0981429 0.000856647 0)
(0.0980153 0.000877491 0)
(0.0978873 0.000899615 0)
(0.0977587 0.000923039 0)
(0.0976293 0.000947807 0)
(0.097499 0.00097397 0)
(0.0973677 0.00100158 0)
(0.0972352 0.00103069 0)
(0.0971015 0.00106134 0)
(0.0969666 0.00109358 0)
(0.0968303 0.00112742 0)
(0.0966928 0.00116291 0)
(0.0965539 0.00120007 0)
(0.0964137 0.00123892 0)
(0.0962723 0.00127949 0)
(0.0961295 0.0013218 0)
(0.0959855 0.00136589 0)
(0.0958403 0.00141179 0)
(0.0956939 0.00145955 0)
(0.0955465 0.00150924 0)
(0.0953979 0.00156091 0)
(0.0952484 0.00161467 0)
(0.0950981 0.00167061 0)
(0.0949469 0.00172885 0)
(0.0947949 0.00178952 0)
(0.0946425 0.00185279 0)
(0.0944895 0.00191882 0)
(0.0943362 0.00198782 0)
(0.0941829 0.00206 0)
(0.0940295 0.00213561 0)
(0.0938765 0.00221491 0)
(0.0937241 0.00229819 0)
(0.0935725 0.00238577 0)
(0.0934222 0.00247798 0)
(0.0932735 0.00257518 0)
(0.0931269 0.00267775 0)
(0.092983 0.00278607 0)
(0.0928425 0.00290056 0)
(0.092706 0.00302162 0)
(0.0925744 0.00314964 0)
(0.0924486 0.00328502 0)
(0.0923298 0.00342809 0)
(0.0922192 0.00357916 0)
(0.0921181 0.00373843 0)
(0.0920281 0.003906 0)
(0.0919509 0.00408185 0)
(0.0918883 0.00426576 0)
(0.0918423 0.0044573 0)
(0.0918151 0.00465575 0)
(0.0918089 0.0048601 0)
(0.0918258 0.00506897 0)
(0.091868 0.00528057 0)
(0.0919378 0.0054927 0)
(0.0920371 0.0057027 0)
(0.0921674 0.00590746 0)
(0.09233 0.00610346 0)
(0.0925256 0.00628683 0)
(0.0927543 0.00645344 0)
(0.0930153 0.00659903 0)
(0.0933073 0.00671939 0)
(0.0936279 0.00681048 0)
(0.0939741 0.00686867 0)
(0.094342 0.00689084 0)
(0.0999993 3.21526e-05 0)
(0.0999945 0.000107829 0)
(0.0999821 0.00023092 0)
(0.0999564 0.000387359 0)
(0.0999112 0.000546958 0)
(0.0998429 0.00068038 0)
(0.099752 0.000772215 0)
(0.0996424 0.000823131 0)
(0.0995198 0.000843968 0)
(0.0993901 0.00084813 0)
(0.0992576 0.000846505 0)
(0.0991252 0.000845762 0)
(0.0989945 0.000848883 0)
(0.0988659 0.000856502 0)