/*--------------------------------*- C++ -*----------------------------------*\
| =========                 |                                                 |
| \\      /  F ield         | OpenFOAM: The Open Source CFD Toolbox           |
|  \\    /   O peration     | Version:  2106                                  |
|   \\  /    A nd           | Website:  www.openfoam.com                      |
|    \\/     M anipulation  |                                                 |
\*---------------------------------------------------------------------------*/
FoamFile
{
    version     2.0;
    format      ascii;
    arch        "LSB;label=32;scalar=64";
    class       surfaceScalarField;
    location    "9";
    object      phi;
}
// * * * * * * * * * * * * * * * * * * * * * * * * * * * * * * * * * * * * * //

dimensions      [1 0 -1 0 0 0 0];

oriented        oriented;

internalField   nonuniform List<scalar> 
23692
(
9.3189e-05
-1.09617e-07
9.33877e-05
-1.98619e-07
9.36657e-05
-2.78016e-07
9.40137e-05
-3.48015e-07
9.44245e-05
-4.10767e-07
9.48921e-05
-4.67578e-07
9.54115e-05
-5.19314e-07
9.59782e-05
-5.66665e-07
9.65884e-05
-6.10167e-07
9.72387e-05
-6.50252e-07
9.7926e-05
-6.87272e-07
9.86475e-05
-7.21514e-07
9.94008e-05
-7.53223e-07
0.000100183
-7.82604e-07
0.000100993
-8.09834e-07
0.000101828
-8.35064e-07
0.000102687
-8.5842e-07
0.000103567
-8.8002e-07
0.000104467
-8.99956e-07
0.000105385
-9.18314e-07
0.000106321
-9.35173e-07
0.000107271
-9.50594e-07
0.000108236
-9.64635e-07
0.000109213
-9.77351e-07
0.000110202
-9.88782e-07
0.000111201
-9.9897e-07
0.000112209
-1.00795e-06
0.000113225
-1.01576e-06
0.000114248
-1.02241e-06
0.000115276
-1.02794e-06
0.000116308
-1.03236e-06
0.000117344
-1.0357e-06
0.000118382
-1.03797e-06
0.000119421
-1.03917e-06
0.00012046
-1.03932e-06
0.000121499
-1.03843e-06
0.000122536
-1.0365e-06
0.000123569
-1.03352e-06
0.000124599
-1.0295e-06
0.000125623
-1.02442e-06
0.000126641
-1.01828e-06
0.000127653
-1.01106e-06
0.000128655
-1.00274e-06
0.000129649
-9.93297e-07
0.000130631
-9.82698e-07
0.000131602
-9.70903e-07
0.00013256
-9.57867e-07
0.000133504
-9.43534e-07
0.000134432
-9.27837e-07
0.000135342
-9.10699e-07
0.000136234
-8.92025e-07
0.000137106
-8.71705e-07
0.000137956
-8.49609e-07
0.000138781
-8.25582e-07
0.000139581
-7.99438e-07
0.000140352
-7.70958e-07
0.000141092
-7.39876e-07
0.000141797
-7.05875e-07
0.000142466
-6.68571e-07
0.000143094
-6.27493e-07
0.000143676
-5.82067e-07
0.000144207
-5.31581e-07
0.000144682
-4.75142e-07
0.000145094
-4.11631e-07
0.000145434
-3.39616e-07
0.000145691
-2.57246e-07
0.000145853
-1.62101e-07
0.000145904
-5.09661e-08
0.000145823
8.05312e-08
0.000145585
2.3853e-07
0.000145153
4.31735e-07
0.00014448
6.72831e-07
0.000143499
9.80807e-07
0.000142114
1.38493e-06
0.000140183
1.93171e-06
0.000137485
2.6972e-06
0.000133676
3.80891e-06
0.000128189
5.48707e-06
0.000120049
8.14058e-06
0.000107432
1.26163e-05
2.13708e-05
8.60616e-05
9.97133e-05
-2.24006e-07
9.99247e-05
-4.09959e-07
0.000100221
-5.74555e-07
0.000100593
-7.19419e-07
0.000101031
-8.49336e-07
0.000101531
-9.66939e-07
0.000102085
-1.07402e-06
0.000102691
-1.17202e-06
0.000103343
-1.26205e-06
0.000104037
-1.345e-06
0.000104772
-1.4216e-06
0.000105543
-1.49246e-06
0.000106348
-1.55806e-06
0.000107184
-1.61885e-06
0.000108049
-1.67518e-06
0.000108942
-1.72737e-06
0.000109859
-1.77568e-06
0.0001108
-1.82035e-06
0.000111761
-1.86158e-06
0.000112743
-1.89955e-06
0.000113742
-1.9344e-06
0.000114758
-1.96628e-06
0.000115788
-1.99531e-06
0.000116833
-2.02158e-06
0.000117889
-2.0452e-06
0.000118956
-2.06624e-06
0.000120033
-2.08479e-06
0.000121119
-2.1009e-06
0.000122211
-2.11462e-06
0.000123309
-2.12602e-06
0.000124412
-2.13513e-06
0.000125518
-2.14199e-06
0.000126627
-2.14663e-06
0.000127737
-2.14907e-06
0.000128847
-2.14934e-06
0.000129956
-2.14744e-06
0.000131063
-2.14339e-06
0.000132167
-2.13718e-06
0.000133266
-2.1288e-06
0.00013436
-2.11825e-06
0.000135447
-2.10549e-06
0.000136527
-2.0905e-06
0.000137597
-2.07324e-06
0.000138658
-2.05365e-06
0.000139707
-2.03168e-06
0.000140743
-2.00723e-06
0.000141765
-1.98022e-06
0.000142772
-1.95054e-06
0.000143763
-1.91803e-06
0.000144735
-1.88256e-06
0.000145686
-1.84392e-06
0.000146617
-1.8019e-06
0.000147523
-1.75621e-06
0.000148404
-1.70656e-06
0.000149257
-1.65255e-06
0.00015008
-1.59375e-06
0.00015087
-1.52962e-06
0.000151624
-1.45952e-06
0.000152338
-1.38266e-06
0.000153008
-1.2981e-06
0.000153631
-1.20469e-06
0.0001542
-1.10099e-06
0.00015471
-9.85234e-07
0.000155154
-8.55187e-07
0.000155522
-7.08018e-07
0.000155805
-5.4009e-07
0.00015599
-3.46677e-07
0.00015606
-1.21552e-07
0.000155997
1.43622e-07
0.000155775
4.60343e-07
0.000155362
8.4466e-07
0.000154716
1.3194e-06
0.000153779
1.91774e-06
0.000152475
2.6889e-06
0.000150699
3.70727e-06
0.00014831
5.08687e-06
0.000145116
7.00259e-06
0.000140884
9.71913e-06
0.000135393
1.36309e-05
0.000128777
1.92325e-05
2.63827e-05
0.000123765
0.000106694
-3.42483e-07
0.000106917
-6.33742e-07
0.000107232
-8.89411e-07
0.000107627
-1.11456e-06
0.000108094
-1.3164e-06
0.000108627
-1.49906e-06
0.000109218
-1.66535e-06
0.000109863
-1.81751e-06
0.000110559
-1.95729e-06
0.0001113
-2.08606e-06
0.000112083
-2.20496e-06
0.000112906
-2.31492e-06
0.000113765
-2.41673e-06
0.000114657
-2.51105e-06
0.00011558
-2.59845e-06
0.000116532
-2.67941e-06
0.000117511
-2.75435e-06
0.000118514
-2.82362e-06
0.00011954
-2.88755e-06
0.000120587
-2.94641e-06
0.000121653
-3.00043e-06
0.000122737
-3.04983e-06
0.000123837
-3.09479e-06
0.000124951
-3.13548e-06
0.000126077
-3.17205e-06
0.000127216
-3.20461e-06
0.000128364
-3.23329e-06
0.000129522
-3.25818e-06
0.000130687
-3.27938e-06
0.000131858
-3.29695e-06
0.000133034
-3.31097e-06
0.000134213
-3.32149e-06
0.000135395
-3.32857e-06
0.000136578
-3.33223e-06
0.000137762
-3.33252e-06
0.000138944
-3.32944e-06
0.000140123
-3.32301e-06
0.000141299
-3.31323e-06
0.000142471
-3.30009e-06
0.000143636
-3.28357e-06
0.000144794
-3.26364e-06
0.000145944
-3.24024e-06
0.000147084
-3.21332e-06
0.000148213
-3.1828e-06
0.00014933
-3.14857e-06
0.000150434
-3.11052e-06
0.000151522
-3.06851e-06
0.000152594
-3.02235e-06
0.000153648
-2.97185e-06
0.000154682
-2.91675e-06
0.000155695
-2.85678e-06
0.000156685
-2.79158e-06
0.000157649
-2.72076e-06
0.000158586
-2.64384e-06
0.000159494
-2.56024e-06
0.00016037
-2.4693e-06
0.00016121
-2.3702e-06
0.000162013
-2.262e-06
0.000162774
-2.14351e-06
0.000163489
-2.01334e-06
0.000164154
-1.86978e-06
0.000164764
-1.71071e-06
0.000165312
-1.53354e-06
0.000165792
-1.33502e-06
0.000166195
-1.11106e-06
0.000166511
-8.56463e-07
0.000166729
-5.64556e-07
0.000166834
-2.26663e-07
0.000166809
1.68593e-07
0.000166633
6.36502e-07
0.00016628
1.19778e-06
0.000165718
1.88095e-06
0.00016491
2.72566e-06
0.000163812
3.78753e-06
0.000162374
5.14483e-06
0.000160554
6.90698e-06
0.000158334
9.22252e-06
0.000155774
1.22789e-05
0.000153134
1.62709e-05
0.000151132
2.12346e-05
2.64474e-05
0.000151067
0.000114162
-4.64756e-07
0.000114398
-8.69402e-07
0.000114731
-1.22239e-06
0.00011515
-1.53359e-06
0.000115646
-1.81246e-06
0.000116212
-2.06473e-06
0.000116841
-2.29436e-06
0.000117528
-2.50443e-06
0.000118268
-2.69737e-06
0.000119057
-2.87508e-06
0.000119891
-3.03915e-06
0.000120767
-3.19086e-06
0.000121682
-3.3313e-06
0.000122632
-3.4614e-06
0.000123616
-3.58192e-06
0.00012463
-3.69354e-06
0.000125672
-3.79684e-06
0.000126741
-3.89231e-06
0.000127834
-3.98039e-06
0.000128949
-4.06146e-06
0.000130085
-4.13586e-06
0.000131239
-4.20386e-06
0.00013241
-4.26573e-06
0.000133596
-4.3217e-06
0.000134796
-4.37196e-06
0.000136008
-4.41669e-06
0.000137231
-4.45606e-06
0.000138463
-4.49019e-06
0.000139703
-4.51922e-06
0.000140949
-4.54324e-06
0.000142201
-4.56235e-06
0.000143456
-4.57663e-06
0.000144714
-4.58614e-06
0.000145973
-4.59095e-06
0.000147231
-4.59108e-06
0.000148488
-4.58658e-06
0.000149743
-4.57744e-06
0.000150993
-4.56369e-06
0.000152239
-4.5453e-06
0.000153477
-4.52225e-06
0.000154708
-4.49449e-06
0.00015593
-4.46196e-06
0.000157141
-4.42457e-06
0.000158341
-4.38222e-06
0.000159527
-4.33478e-06
0.000160699
-4.28209e-06
0.000161854
-4.22395e-06
0.000162992
-4.16013e-06
0.000164111
-4.09035e-06
0.000165208
-4.01429e-06
0.000166283
-3.93155e-06
0.000167333
-3.8417e-06
0.000168356
-3.74417e-06
0.000169351
-3.63835e-06
0.000170314
-3.52349e-06
0.000171244
-3.39868e-06
0.000172136
-3.26287e-06
0.000172989
-3.1148e-06
0.000173799
-2.95296e-06
0.000174561
-2.77551e-06
0.000175271
-2.58026e-06
0.000175925
-2.3645e-06
0.000176516
-2.12496e-06
0.000177039
-1.85754e-06
0.000177485
-1.55717e-06
0.000177846
-1.21752e-06
0.000178112
-8.30519e-07
0.000178271
-3.85968e-07
0.000178311
1.29133e-07
0.000178215
7.31974e-07
0.000177969
1.44433e-06
0.000177554
2.29542e-06
0.000176956
3.32348e-06
0.000176165
4.57841e-06
0.000175186
6.12445e-06
0.000174051
8.04152e-06
0.000172852
1.04217e-05
0.000171778
1.33528e-05
0.000171179
1.68697e-05
0.000171585
2.08292e-05
2.46407e-05
0.000173391
0.000122153
-5.90681e-07
0.0001224
-1.11647e-06
0.000122751
-1.57324e-06
0.000123194
-1.97653e-06
0.000123719
-2.33783e-06
0.000124319
-2.66457e-06
0.000124987
-2.9619e-06
0.000125716
-3.23386e-06
0.000126503
-3.48358e-06
0.000127341
-3.71356e-06
0.000128228
-3.92582e-06
0.000129159
-4.12206e-06
0.000130132
-4.30369e-06
0.000131142
-4.47189e-06
0.000132188
-4.62769e-06
0.000133266
-4.77194e-06
0.000134375
-4.90541e-06
0.000135512
-5.02872e-06
0.000136674
-5.14246e-06
0.000137859
-5.24711e-06
0.000139067
-5.34309e-06
0.000140294
-5.4308e-06
0.000141539
-5.51055e-06
0.0001428
-5.58265e-06
0.000144075
-5.64736e-06
0.000145364
-5.7049e-06
0.000146663
-5.75548e-06
0.000147972
-5.79928e-06
0.00014929
-5.83646e-06
0.000150614
-5.86716e-06
0.000151943
-5.89149e-06
0.000153276
-5.90957e-06
0.000154611
-5.92147e-06
0.000155948
-5.92727e-06
0.000157284
-5.92702e-06
0.000158618
-5.92077e-06
0.000159949
-5.90853e-06
0.000161276
-5.89031e-06
0.000162597
-5.8661e-06
0.00016391
-5.83586e-06
0.000165215
-5.79954e-06
0.000166511
-5.75706e-06
0.000167794
-5.70831e-06
0.000169065
-5.65318e-06
0.000170322
-5.59148e-06
0.000171563
-5.52302e-06
0.000172787
-5.44757e-06
0.000173991
-5.36483e-06
0.000175176
-5.27445e-06
0.000176337
-5.17604e-06
0.000177475
-5.06912e-06
0.000178586
-4.95312e-06
0.00017967
-4.82738e-06
0.000180722
-4.69113e-06
0.000181742
-4.54345e-06
0.000182727
-4.38325e-06
0.000183673
-4.20926e-06
0.000184579
-4.01995e-06
0.000185439
-3.81352e-06
0.000186251
-3.58779e-06
0.000187011
-3.34019e-06
0.000187714
-3.06756e-06
0.000188356
-2.76613e-06
0.000188929
-2.43126e-06
0.000189429
-2.0573e-06
0.000189849
-1.63728e-06
0.000190181
-1.16256e-06
0.000190418
-6.22414e-07
0.000190551
-4.27289e-09
0.000190573
7.09882e-07
0.000190479
1.53857e-06
0.000190266
2.50789e-06
0.000189941
3.6488e-06
0.000189521
4.9984e-06
0.000189046
6.59924e-06
0.000188591
8.49638e-06
0.000188283
1.07295e-05
0.000188321
1.33151e-05
0.00018898
1.6211e-05
0.000190558
1.9251e-05
2.20502e-05
0.000193148
0.000130704
-7.20275e-07
0.000130962
-1.37459e-06
0.00013133
-1.94171e-06
0.000131797
-2.44327e-06
0.000132352
-2.89268e-06
0.000132986
-3.29899e-06
0.000133693
-3.66866e-06
0.000134466
-4.0067e-06
0.0001353
-4.31703e-06
0.000136189
-4.60274e-06
0.000137129
-4.8664e-06
0.000138117
-5.11009e-06
0.000139149
-5.33557e-06
0.000140222
-5.54434e-06
0.000141332
-5.73765e-06
0.000142477
-5.91659e-06
0.000143653
-6.08208e-06
0.00014486
-6.23495e-06
0.000146093
-6.37588e-06
0.000147352
-6.50549e-06
0.000148633
-6.62432e-06
0.000149935
-6.73284e-06
0.000151256
-6.83146e-06
0.000152594
-6.92055e-06
0.000153947
-7.00043e-06
0.000155314
-7.07139e-06
0.000156692
-7.13369e-06
0.000158081
-7.18755e-06
0.000159477
-7.23317e-06
0.000160881
-7.27072e-06
0.00016229
-7.30035e-06
0.000163703
-7.3222e-06
0.000165118
-7.33637e-06
0.000166534
-7.34296e-06
0.000167949
-7.34203e-06
0.000169362
-7.33364e-06
0.000170771
-7.31781e-06
0.000172175
-7.29456e-06
0.000173573
-7.26387e-06
0.000174963
-7.2257e-06
0.000176343
-7.18e-06
0.000177713
-7.12668e-06
0.00017907
-7.06561e-06
0.000180414
-6.99664e-06
0.000181742
-6.91958e-06
0.000183053
-6.83419e-06
0.000184346
-6.74019e-06
0.000185618
-6.63724e-06
0.000186869
-6.52494e-06
0.000188096
-6.40281e-06
0.000189297
-6.2703e-06
0.000190471
-6.12676e-06
0.000191615
-5.97141e-06
0.000192727
-5.80336e-06
0.000193805
-5.62155e-06
0.000194847
-5.42475e-06
0.000195849
-5.21151e-06
0.000196809
-4.98011e-06
0.000197724
-4.72853e-06
0.000198591
-4.45438e-06
0.000199405
-4.15483e-06
0.000200164
-3.8265e-06
0.000200863
-3.46535e-06
0.000201499
-3.06658e-06
0.000202066
-2.62439e-06
0.00020256
-2.13183e-06
0.000202978
-1.58055e-06
0.000203316
-9.60534e-07
0.000203572
-2.59898e-07
0.000203746
5.35727e-07
0.000203843
1.44206e-06
0.000203872
2.47814e-06
0.000203856
3.66519e-06
0.000203829
5.02562e-06
0.000203847
6.58099e-06
0.000203995
8.34785e-06
0.000204394
1.03305e-05
0.000205201
1.25084e-05
0.000206595
1.48172e-05
0.000208723
1.71226e-05
1.91966e-05
0.000211577
0.000139853
-8.53627e-07
0.000140122
-1.6435e-06
0.000140508
-2.32759e-06
0.000140998
-2.9337e-06
0.000141582
-3.47704e-06
0.000142252
-3.96825e-06
0.000142998
-4.4151e-06
0.000143815
-4.82362e-06
0.000144697
-5.19856e-06
0.000145638
-5.54368e-06
0.000146633
-5.86207e-06
0.00014768
-6.15626e-06
0.000148773
-6.4284e-06
0.000149909
-6.68028e-06
0.000151085
-6.91344e-06
0.000152297
-7.12918e-06
0.000153544
-7.32865e-06
0.000154822
-7.51281e-06
0.000156129
-7.68251e-06
0.000157462
-7.83851e-06
0.000158819
-7.98145e-06
0.000160198
-8.11189e-06
0.000161597
-8.23035e-06
0.000163014
-8.33728e-06
0.000164447
-8.43305e-06
0.000165893
-8.51802e-06
0.000167352
-8.59251e-06
0.000168822
-8.65678e-06
0.0001703
-8.71107e-06
0.000171785
-8.7556e-06
0.000173275
-8.79056e-06
0.000174769
-8.8161e-06
0.000176265
-8.83236e-06
0.000177761
-8.83945e-06
0.000179257
-8.83746e-06
0.00018075
-8.82645e-06
0.000182239
-8.80648e-06
0.000183722
-8.77754e-06
0.000185198
-8.73964e-06
0.000186665
-8.69275e-06
0.000188122
-8.63678e-06
0.000189567
-8.57165e-06
0.000190998
-8.49722e-06
0.000192415
-8.41333e-06
0.000193815
-8.31975e-06
0.000195197
-8.21622e-06
0.00019656
-8.10243e-06
0.0001979
-7.97799e-06
0.000199218
-7.84246e-06
0.00020051
-7.69531e-06
0.000201776
-7.53592e-06
0.000203013
-7.36356e-06
0.000204219
-7.17739e-06
0.000205392
-6.97642e-06
0.00020653
-6.75951e-06
0.000207631
-6.52532e-06
0.000208691
-6.2723e-06
0.00020971
-5.99861e-06
0.000210684
-5.70215e-06
0.00021161
-5.38044e-06
0.000212485
-5.03058e-06
0.000213308
-4.64917e-06
0.000214075
-4.23226e-06
0.000214784
-3.7752e-06
0.000215432
-3.27256e-06
0.000216018
-2.71802e-06
0.000216542
-2.10426e-06
0.000217004
-1.42285e-06
0.000217408
-6.64187e-07
0.000217761
1.82462e-07
0.000218075
1.12815e-06
0.000218369
2.18424e-06
0.000218672
3.36226e-06
0.000219026
4.67184e-06
0.000219488
6.11856e-06
0.000220135
7.70051e-06
0.000221062
9.40345e-06
0.000222377
1.11942e-05
0.000224181
1.30128e-05
0.000226538
1.47652e-05
1.63232e-05
0.000229412
0.000149643
-9.90926e-07
0.000149922
-1.92303e-06
0.000150325
-2.7307e-06
0.000150839
-3.44764e-06
0.000151453
-4.09088e-06
0.000152157
-4.67247e-06
0.000152944
-5.2015e-06
0.000153805
-5.68509e-06
0.000154736
-6.12882e-06
0.000155729
-6.53716e-06
0.000156781
-6.91376e-06
0.000157886
-7.26164e-06
0.000159041
-7.58334e-06
0.000160242
-7.88098e-06
0.000161485
-8.1564e-06
0.000162767
-8.41114e-06
0.000164085
-8.64656e-06
0.000165436
-8.86381e-06
0.000166818
-9.0639e-06
0.000168227
-9.24772e-06
0.000169662
-9.41604e-06
0.00017112
-9.56954e-06
0.000172598
-9.70881e-06
0.000174095
-9.83439e-06
0.000175609
-9.94675e-06
0.000177138
-1.00463e-05
0.000178679
-1.01334e-05
0.00018023
-1.02084e-05
0.000181791
-1.02715e-05
0.000183359
-1.03231e-05
0.000184931
-1.03634e-05
0.000186508
-1.03925e-05
0.000188086
-1.04105e-05
0.000189665
-1.04178e-05
0.000191242
-1.04143e-05
0.000192815
-1.04001e-05
0.000194384
-1.03754e-05
0.000195947
-1.034e-05
0.000197501
-1.02941e-05
0.000199046
-1.02376e-05
0.00020058
-1.01704e-05
0.000202101
-1.00925e-05
0.000203608
-1.00036e-05
0.000205098
-9.90369e-06
0.000206571
-9.79243e-06
0.000208024
-9.66956e-06
0.000209456
-9.53475e-06
0.000210866
-9.38759e-06
0.000212251
-9.2276e-06
0.00021361
-9.05423e-06
0.000214941
-8.86681e-06
0.000216242
-8.66458e-06
0.000217512
-8.44665e-06
0.000218747
-8.212e-06
0.000219947
-7.95944e-06
0.000221109
-7.68759e-06
0.000222232
-7.39489e-06
0.000223313
-7.0795e-06
0.00022435
-6.73935e-06
0.000225342
-6.37202e-06
0.000226286
-5.97474e-06
0.000227181
-5.54437e-06
0.000228026
-5.07728e-06
0.00022882
-4.56938e-06
0.000229564
-4.01602e-06
0.000230258
-3.41201e-06
0.000230905
-2.75161e-06
0.000231511
-2.02858e-06
0.000232083
-1.23625e-06
0.000232633
-3.67747e-07
0.000233178
5.8342e-07
0.00023374
1.62187e-06
0.000234351
2.75096e-06
0.000235052
3.97112e-06
0.000235892
5.278e-06
0.000236933
6.66028e-06
0.000238239
8.09724e-06
0.000239877
9.55608e-06
0.0002419
1.09899e-05
0.000244327
1.23377e-05
1.3529e-05
0.000247121
0.000160118
-1.13238e-06
0.000160408
-2.2131e-06
0.000160828
-3.15094e-06
0.000161366
-3.98496e-06
0.000162009
-4.73408e-06
0.000162748
-5.41163e-06
0.000163575
-6.02799e-06
0.000164481
-6.59136e-06
0.00016546
-7.1082e-06
0.000166507
-7.58371e-06
0.000167615
-8.02213e-06
0.000168781
-8.42699e-06
0.000169999
-8.80124e-06
0.000171265
-9.14738e-06
0.000172576
-9.46754e-06
0.000173929
-9.76353e-06
0.000175319
-1.00369e-05
0.000176745
-1.02891e-05
0.000178202
-1.05212e-05
0.000179689
-1.07343e-05
0.000181202
-1.09293e-05
0.00018274
-1.1107e-05
0.000184299
-1.1268e-05
0.000185878
-1.14131e-05
0.000187474
-1.15427e-05
0.000189085
-1.16573e-05
0.000190709
-1.17574e-05
0.000192344
-1.18434e-05
0.000193989
-1.19155e-05
0.00019564
-1.19742e-05
0.000197296
-1.20196e-05
0.000198956
-1.2052e-05
0.000200617
-1.20716e-05
0.000202278
-1.20786e-05
0.000203937
-1.20731e-05
0.000205592
-1.20552e-05
0.000207242
-1.20249e-05
0.000208884
-1.19824e-05
0.000210518
-1.19277e-05
0.000212141
-1.18606e-05
0.000213752
-1.17812e-05
0.000215349
-1.16894e-05
0.00021693
-1.1585e-05
0.000218494
-1.14679e-05
0.00022004
-1.13378e-05
0.000221565
-1.11944e-05
0.000223067
-1.10374e-05
0.000224546
-1.08664e-05
0.000225999
-1.06809e-05
0.000227426
-1.04803e-05
0.000228823
-1.02639e-05
0.000230189
-1.0031e-05
0.000231523
-9.78074e-06
0.000232823
-9.51205e-06
0.000234088
-9.22379e-06
0.000235315
-8.91463e-06
0.000236503
-8.58307e-06
0.000237651
-8.22739e-06
0.000238757
-7.84568e-06
0.000239821
-7.43575e-06
0.000240841
-6.99517e-06
0.000241818
-6.52123e-06
0.000242752
-6.01093e-06
0.000243643
-5.46098e-06
0.000244495
-4.86785e-06
0.000245311
-4.22778e-06
0.000246096
-3.53689e-06
0.000246859
-2.79132e-06
0.00024761
-1.98743e-06
0.000248364
-1.12204e-06
0.00024914
-1.92601e-07
0.000249961
8.01273e-07
0.000250855
1.85685e-06
0.000251857
2.96893e-06
0.000253007
4.12827e-06
0.000254347
5.32052e-06
0.000255919
6.52519e-06
0.00025776
7.7152e-06
0.000259892
8.85709e-06
0.000262317
9.91284e-06
1.0844e-05
0.000265002
0.000171327
-1.27821e-06
0.000171627
-2.51367e-06
0.000172064
-3.5882e-06
0.000172625
-4.5455e-06
0.000173297
-5.40649e-06
0.000174072
-6.18563e-06
0.000174938
-6.89453e-06
0.000175889
-7.54248e-06
0.000176918
-8.13685e-06
0.000178018
-8.68357e-06
0.000179183
-9.18752e-06
0.000180409
-9.65273e-06
0.000181691
-1.00826e-05
0.000183024
-1.04801e-05
0.000184404
-1.08475e-05
0.000185827
-1.1187e-05
0.000187291
-1.15005e-05
0.000188791
-1.17894e-05
0.000190325
-1.20552e-05
0.00019189
-1.22991e-05
0.000193483
-1.2522e-05
0.000195101
-1.27249e-05
0.000196742
-1.29087e-05
0.000198403
-1.3074e-05
0.000200082
-1.32215e-05
0.000201777
-1.33517e-05
0.000203484
-1.34651e-05
0.000205203
-1.35623e-05
0.000206931
-1.36435e-05
0.000208667
-1.37092e-05
0.000210407
-1.37596e-05
0.00021215
-1.37951e-05
0.000213894
-1.38159e-05
0.000215638
-1.38221e-05
0.000217379
-1.3814e-05
0.000219115
-1.37916e-05
0.000220846
-1.37552e-05
0.000222568
-1.37046e-05
0.000224281
-1.36401e-05
0.000225982
-1.35616e-05
0.000227669
-1.34689e-05
0.000229342
-1.33622e-05
0.000230999
-1.32412e-05
0.000232637
-1.31058e-05
0.000234255
-1.29557e-05
0.000235851
-1.27908e-05
0.000237424
-1.26105e-05
0.000238973
-1.24147e-05
0.000240494
-1.22027e-05
0.000241988
-1.1974e-05
0.000243453
-1.17281e-05
0.000244886
-1.14642e-05
0.000246286
-1.11814e-05
0.000247653
-1.08788e-05
0.000248985
-1.05553e-05
0.00025028
-1.02099e-05
0.000251538
-9.84099e-06
0.000252758
-9.44726e-06
0.000253939
-9.02703e-06
0.000255082
-8.5785e-06
0.000256186
-8.09972e-06
0.000257254
-7.5886e-06
0.000258286
-7.04294e-06
0.000259285
-6.46045e-06
0.000260256
-5.83884e-06
0.000261204
-5.17588e-06
0.000262137
-4.46957e-06
0.000263064
-3.71827e-06
0.000263997
-2.92096e-06
0.000264953
-2.07746e-06
0.000265949
-1.1887e-06
0.000267007
-2.56688e-07
0.00026815
7.13525e-07
0.000269405
1.7138e-06
0.000270801
2.73296e-06
0.000272364
3.75731e-06
0.000274119
4.76951e-06
0.000276085
5.74924e-06
0.000278268
6.67394e-06
0.000280661
7.52049e-06
8.26809e-06
0.000283237
0.00018332
-1.4286e-06
0.000183631
-2.8247e-06
0.000184085
-4.04237e-06
0.000184669
-5.12909e-06
0.00018537
-6.10787e-06
0.000186179
-6.99423e-06
0.000187086
-7.80092e-06
0.000188081
-8.53832e-06
0.000189159
-9.21468e-06
0.000190313
-9.83672e-06
0.000191535
-1.04099e-05
0.000192821
-1.0939e-05
0.000194167
-1.14276e-05
0.000195566
-1.18792e-05
0.000197015
-1.22965e-05
0.00019851
-1.26819e-05
0.000200047
-1.30375e-05
0.000201623
-1.33651e-05
0.000203234
-1.36662e-05
0.000204877
-1.39423e-05
0.00020655
-1.41944e-05
0.000208249
-1.44237e-05
0.000209971
-1.4631e-05
0.000211715
-1.48173e-05
0.000213477
-1.49833e-05
0.000215254
-1.51295e-05
0.000217046
-1.52566e-05
0.000218849
-1.53651e-05
0.000220661
-1.54554e-05
0.00022248
-1.5528e-05
0.000224304
-1.55833e-05
0.00022613
-1.56215e-05
0.000227957
-1.56429e-05
0.000229783
-1.56479e-05
0.000231606
-1.56365e-05
0.000233423
-1.5609e-05
0.000235234
-1.55655e-05
0.000237035
-1.55061e-05
0.000238826
-1.54309e-05
0.000240605
-1.53399e-05
0.000242369
-1.5233e-05
0.000244117
-1.51103e-05
0.000245848
-1.49717e-05
0.000247559
-1.48169e-05
0.000249249
-1.46459e-05
0.000250917
-1.44584e-05
0.00025256
-1.4254e-05
0.000254178
-1.40325e-05
0.000255769
-1.37934e-05
0.000257331
-1.35363e-05
0.000258864
-1.32605e-05
0.000260365
-1.29654e-05
0.000261834
-1.26504e-05
0.00026327
-1.23145e-05
0.000264672
-1.1957e-05
0.000266039
-1.15769e-05
0.000267371
-1.1173e-05
0.000268668
-1.07442e-05
0.00026993
-1.02892e-05
0.000271158
-9.80683e-06
0.000272354
-9.29564e-06
0.00027352
-8.75428e-06
0.000274658
-8.18144e-06
0.000275774
-7.57588e-06
0.000276871
-6.93652e-06
0.000277958
-6.26261e-06
0.000279042
-5.55376e-06
0.000280134
-4.81017e-06
0.000281246
-4.03281e-06
0.000282392
-3.22357e-06
0.000283589
-2.38552e-06
0.000284855
-1.52293e-06
0.00028621
-6.41127e-07
0.000287671
2.52129e-07
0.000289258
1.14653e-06
0.000290985
2.02984e-06
0.000292866
2.88816e-06
0.000294908
3.70735e-06
0.000297109
4.47267e-06
0.00029946
5.17026e-06
5.78902e-06
0.000301939
0.000196154
-1.58371e-06
0.000196475
-3.14617e-06
0.000196946
-4.51328e-06
0.000197552
-5.73547e-06
0.000198282
-6.83788e-06
0.000199125
-7.83705e-06
0.000200071
-8.74676e-06
0.000201111
-9.57845e-06
0.000202238
-1.03413e-05
0.000203444
-1.10428e-05
0.000204724
-1.16891e-05
0.00020607
-1.22854e-05
0.000207478
-1.28359e-05
0.000208944
-1.33445e-05
0.000210462
-1.38143e-05
0.000212028
-1.42479e-05
0.000213638
-1.46477e-05
0.000215289
-1.50158e-05
0.000216977
-1.53539e-05
0.000218698
-1.56636e-05
0.00022045
-1.59461e-05
0.000222229
-1.62028e-05
0.000224033
-1.64347e-05
0.000225859
-1.66426e-05
0.000227703
-1.68276e-05
0.000229564
-1.69902e-05
0.000231439
-1.71312e-05
0.000233325
-1.72511e-05
0.00023522
-1.73505e-05
0.000237122
-1.74299e-05
0.000239029
-1.74897e-05
0.000240938
-1.75302e-05
0.000242847
-1.75519e-05
0.000244754
-1.75549e-05
0.000246657
-1.75396e-05
0.000248554
-1.75062e-05
0.000250444
-1.74549e-05
0.000252324
-1.73857e-05
0.000254192
-1.72989e-05
0.000256046
-1.71944e-05
0.000257886
-1.70724e-05
0.000259708
-1.69328e-05
0.000261512
-1.67755e-05
0.000263296
-1.66005e-05
0.000265058
-1.64076e-05
0.000266796
-1.61967e-05
0.00026851
-1.59676e-05
0.000270197
-1.57199e-05
0.000271857
-1.54533e-05
0.000273488
-1.51674e-05
0.00027509
-1.48619e-05
0.000276661
-1.45361e-05
0.0002782
-1.41896e-05
0.000279707
-1.38217e-05
0.000281182
-1.34318e-05
0.000282624
-1.30192e-05
0.000284034
-1.25831e-05
0.000285413
-1.21228e-05
0.000286761
-1.16375e-05
0.000288081
-1.11264e-05
0.000289374
-1.05889e-05
0.000290644
-1.00243e-05
0.000291895
-9.43219e-06
0.000293132
-8.81229e-06
0.00029436
-8.16465e-06
0.000295587
-7.48968e-06
0.000296821
-6.78829e-06
0.000298073
-6.062e-06
0.000299353
-5.31305e-06
0.000300674
-4.54455e-06
0.000302049
-3.76054e-06
0.000303492
-2.96609e-06
0.000305018
-2.16722e-06
0.000306641
-1.37076e-06
0.000308372
-5.84204e-07
0.000310219
1.83255e-07
0.000312185
9.21453e-07
0.000314272
1.62036e-06
0.000316474
2.27034e-06
0.000318782
2.86278e-06
3.39219e-06
0.000321179
0.000209885
-1.74364e-06
0.000210217
-3.478e-06
0.000210705
-5.00068e-06
0.000211333
-6.36429e-06
0.000212092
-7.59605e-06
0.000212968
-8.7135e-06
0.000213953
-9.7314e-06
0.000215037
-1.06622e-05
0.000216211
-1.1516e-05
0.00021747
-1.2301e-05
0.000218805
-1.30242e-05
0.000220211
-1.36911e-05
0.000221682
-1.43068e-05
0.000223213
-1.48752e-05
0.000224799
-1.54e-05
0.000226435
-1.58841e-05
0.000228118
-1.63303e-05
0.000229843
-1.67407e-05
0.000231606
-1.71174e-05
0.000233405
-1.7462e-05
0.000235235
-1.77762e-05
0.000237094
-1.80613e-05
0.000238978
-1.83185e-05
0.000240884
-1.85488e-05
0.00024281
-1.87532e-05
0.000244752
-1.89325e-05
0.000246709
-1.90875e-05
0.000248677
-1.92189e-05
0.000250654
-1.93273e-05
0.000252637
-1.94133e-05
0.000254625
-1.94772e-05
0.000256615
-1.95197e-05
0.000258604
-1.9541e-05
0.000260591
-1.95416e-05
0.000262573
-1.95216e-05
0.000264548
-1.94816e-05
0.000266515
-1.94215e-05
0.000268471
-1.93418e-05
0.000270415
-1.92424e-05
0.000272344
-1.91236e-05
0.000274257
-1.89855e-05
0.000276153
-1.8828e-05
0.000278029
-1.86513e-05
0.000279883
-1.84552e-05
0.000281716
-1.82398e-05
0.000283524
-1.8005e-05
0.000285307
-1.77505e-05
0.000287064
-1.74763e-05
0.000288793
-1.71822e-05
0.000290493
-1.68679e-05
0.000292164
-1.6533e-05
0.000293806
-1.61774e-05
0.000295417
-1.58007e-05
0.000296998
-1.54024e-05
0.000298548
-1.49823e-05
0.000300069
-1.454e-05
0.000301561
-1.4075e-05
0.000303025
-1.35871e-05
0.000304464
-1.3076e-05
0.000305879
-1.25416e-05
0.000307273
-1.19836e-05
0.000308651
-1.14024e-05
0.000310017
-1.07981e-05
0.000311376
-1.01713e-05
0.000312735
-9.52293e-06
0.000314099
-8.85435e-06
0.000315478
-8.16729e-06
0.00031688
-7.46406e-06
0.000318315
-6.7476e-06
0.000319792
-6.02147e-06
0.000321321
-5.28991e-06
0.000322913
-4.55785e-06
0.000324576
-3.83082e-06
0.00032632
-3.1149e-06
0.000328153
-2.41648e-06
0.000330078
-1.742e-06
0.000332097
-1.09743e-06
0.000334206
-4.89242e-07
0.0003364
7.67851e-08
0.000338667
5.9544e-07
1.0638e-06
0.000340996
0.000224578
-1.90839e-06
0.00022492
-3.82001e-06
0.000225424
-5.50418e-06
0.000226075
-7.01497e-06
0.00022686
-8.38164e-06
0.000227769
-9.62271e-06
0.000228792
-1.07539e-05
0.000229918
-1.17885e-05
0.00023114
-1.27376e-05
0.000232449
-1.36103e-05
0.000233839
-1.4414e-05
0.000235303
-1.5155e-05
0.000236835
-1.58388e-05
0.00023843
-1.64699e-05
0.000240083
-1.70522e-05
0.000241788
-1.75892e-05
0.000243541
-1.80836e-05
0.000245339
-1.85381e-05
0.000247176
-1.89549e-05
0.000249051
-1.93359e-05
0.000250957
-1.96829e-05
0.000252893
-1.99973e-05
0.000254856
-2.02805e-05
0.000256841
-2.05337e-05
0.000258846
-2.0758e-05
0.000260868
-2.09543e-05
0.000262904
-2.11235e-05
0.000264952
-2.12664e-05
0.000267008
-2.13836e-05
0.000269071
-2.14758e-05
0.000271137
-2.15436e-05
0.000273205
-2.15874e-05
0.000275272
-2.16078e-05
0.000277336
-2.16052e-05
0.000279394
-2.158e-05
0.000281445
-2.15325e-05
0.000283487
-2.1463e-05
0.000285517
-2.13717e-05
0.000287534
-2.1259e-05
0.000289535
-2.1125e-05
0.00029152
-2.09699e-05
0.000293486
-2.07939e-05
0.000295432
-2.0597e-05
0.000297356
-2.03793e-05
0.000299257
-2.01408e-05
0.000301134
-1.98817e-05
0.000302985
-1.96018e-05
0.00030481
-1.93012e-05
0.000306608
-1.89798e-05
0.000308378
-1.86376e-05
0.000310119
-1.82744e-05
0.000311832
-1.78901e-05
0.000313516
-1.74847e-05
0.000315172
-1.70582e-05
0.0003168
-1.66104e-05
0.000318401
-1.61413e-05
0.000319977
-1.5651e-05
0.00032153
-1.51396e-05
0.000323061
-1.46073e-05
0.000324574
-1.40545e-05
0.000326072
-1.34816e-05
0.000327559
-1.28893e-05
0.00032904
-1.22787e-05
0.000330519
-1.16508e-05
0.000332004
-1.10073e-05
0.000333499
-1.03499e-05
0.000335013
-9.68103e-06
0.000336552
-9.00326e-06
0.000338124
-8.31974e-06
0.000339737
-7.63401e-06
0.000341397
-6.95004e-06
0.000343111
-6.27216e-06
0.000344885
-5.60501e-06
0.000346724
-4.95339e-06
0.000348629
-4.3222e-06
0.000350604
-3.71622e-06
0.000352646
-3.13995e-06
0.000354754
-2.59754e-06
0.000356923
-2.09229e-06
0.000359145
-1.62606e-06
-1.20015e-06
0.000361409
0.0002403
-2.07789e-06
0.000240652
-4.17192e-06
0.000241171
-6.02318e-06
0.000241842
-7.68672e-06
0.000242654
-9.19364e-06
0.000243595
-1.05635e-05
0.000244654
-1.18128e-05
0.000245822
-1.29558e-05
0.000247089
-1.40045e-05
0.000248447
-1.49687e-05
0.00024989
-1.58565e-05
0.00025141
-1.6675e-05
0.000253001
-1.74299e-05
0.000254658
-1.81264e-05
0.000256374
-1.87687e-05
0.000258146
-1.93606e-05
0.000259968
-1.99052e-05
0.000261835
-2.04055e-05
0.000263745
-2.08639e-05
0.000265691
-2.12825e-05
0.000267672
-2.16633e-05
0.000269683
-2.20079e-05
0.00027172
-2.23179e-05
0.000273781
-2.25945e-05
0.000275863
-2.2839e-05
0.000277961
-2.30525e-05
0.000280073
-2.32359e-05
0.000282197
-2.33901e-05
0.00028433
-2.35159e-05
0.000286468
-2.36141e-05
0.00028861
-2.36852e-05
0.000290753
-2.373e-05
0.000292894
-2.37489e-05
0.000295031
-2.37425e-05
0.000297163
-2.37112e-05
0.000299286
-2.36555e-05
0.000301399
-2.35757e-05
0.0003035
-2.34722e-05
0.000305586
-2.33454e-05
0.000307657
-2.31955e-05
0.00030971
-2.30228e-05
0.000311744
-2.28275e-05
0.000313757
-2.26099e-05
0.000315748
-2.23702e-05
0.000317715