/*--------------------------------*- C++ -*----------------------------------*\
| =========                 |                                                 |
| \\      /  F ield         | OpenFOAM: The Open Source CFD Toolbox           |
|  \\    /   O peration     | Version:  2106                                  |
|   \\  /    A nd           | Website:  www.openfoam.com                      |
|    \\/     M anipulation  |                                                 |
\*---------------------------------------------------------------------------*/
FoamFile
{
    version     2.0;
    format      ascii;
    arch        "LSB;label=32;scalar=64";
    class       volScalarField;
    location    "9";
    object      T;
}
// * * * * * * * * * * * * * * * * * * * * * * * * * * * * * * * * * * * * * //

dimensions      [0 0 0 1 0 0 0];

internalField   nonuniform List<scalar> 
12013
(
300.004
300.011
300.019
300.027
300.035
300.044
300.053
300.062
300.072
300.082
300.092
300.103
300.114
300.126
300.138
300.15
300.163
300.176
300.19
300.204
300.218
300.233
300.249
300.265
300.281
300.298
300.316
300.334
300.352
300.371
300.391
300.411
300.432
300.453
300.476
300.498
300.522
300.545
300.57
300.596
300.622
300.648
300.676
300.704
300.733
300.763
300.794
300.826
300.858
300.891
300.926
300.961
300.997
301.035
301.073
301.113
301.153
301.195
301.238
301.283
301.329
301.376
301.425
301.475
301.527
301.581
301.636
301.694
301.754
301.816
301.881
301.949
302.021
302.095
302.175
302.259
302.349
302.448
302.556
302.679
302.827
300.004
300.011
300.019
300.027
300.035
300.044
300.053
300.062
300.072
300.082
300.092
300.103
300.114
300.126
300.138
300.15
300.163
300.176
300.19
300.204
300.218
300.233
300.249
300.265
300.281
300.298
300.316
300.334
300.352
300.371
300.391
300.411
300.432
300.453
300.476
300.498
300.521
300.545
300.57
300.595
300.622
300.648
300.676
300.704
300.733
300.763
300.794
300.825
300.858
300.891
300.926
300.961
300.997
301.035
301.073
301.112
301.153
301.195
301.238
301.282
301.328
301.375
301.424
301.474
301.526
301.58
301.635
301.693
301.753
301.815
301.88
301.947
302.018
302.093
302.171
302.254
302.343
302.439
302.543
302.658
302.784
300.004
300.011
300.019
300.027
300.035
300.044
300.053
300.062
300.072
300.082
300.092
300.103
300.114
300.126
300.138
300.15
300.163
300.176
300.19
300.204
300.218
300.233
300.249
300.265
300.281
300.298
300.316
300.334
300.352
300.371
300.391
300.411
300.432
300.453
300.475
300.498
300.521
300.545
300.57
300.595
300.621
300.648
300.676
300.704
300.733
300.763
300.794
300.825
300.858
300.891
300.925
300.961
300.997
301.034
301.072
301.112
301.152
301.194
301.237
301.282
301.327
301.374
301.423
301.473
301.525
301.578
301.633
301.691
301.75
301.812
301.876
301.943
302.013
302.086
302.163
302.245
302.331
302.422
302.519
302.622
302.73
300.004
300.011
300.019
300.027
300.035
300.044
300.053
300.062
300.072
300.082
300.092
300.103
300.114
300.126
300.138
300.15
300.163
300.176
300.19
300.204
300.218
300.233
300.249
300.265
300.281
300.298
300.316
300.334
300.352
300.371
300.391
300.411
300.432
300.453
300.475
300.498
300.521
300.545
300.57
300.595
300.621
300.648
300.675
300.704
300.733
300.763
300.793
300.825
300.857
300.891
300.925
300.96
300.996
301.033
301.072
301.111
301.151
301.193
301.236
301.28
301.326
301.372
301.421
301.471
301.522
301.575
301.63
301.687
301.746
301.807
301.87
301.936
302.005
302.076
302.151
302.23
302.312
302.397
302.487
302.579
302.672
300.004
300.011
300.019
300.027
300.035
300.044
300.053
300.062
300.072
300.082
300.092
300.103
300.114
300.126
300.138
300.15
300.163
300.176
300.19
300.204
300.218
300.233
300.249
300.265
300.281
300.298
300.316
300.334
300.352
300.371
300.391
300.411
300.432
300.453
300.475
300.498
300.521
300.545
300.57
300.595
300.621
300.648
300.675
300.703
300.732
300.762
300.793
300.824
300.857
300.89
300.924
300.959
300.995
301.032
301.07
301.11
301.15
301.191
301.234
301.278
301.323
301.37
301.418
301.467
301.518
301.571
301.625
301.681
301.739
301.799
301.862
301.926
301.993
302.062
302.134
302.209
302.287
302.366
302.448
302.531
302.614
300.004
300.011
300.019
300.027
300.035
300.044
300.053
300.062
300.072
300.082
300.092
300.103
300.114
300.126
300.138
300.15
300.163
300.176
300.19
300.204
300.218
300.233
300.249
300.265
300.281
300.298
300.316
300.333
300.352
300.371
300.391
300.411
300.432
300.453
300.475
300.498
300.521
300.545
300.569
300.595
300.621
300.647
300.675
300.703
300.732
300.762
300.792
300.823
300.856
300.889
300.923
300.958
300.994
301.031
301.069
301.108
301.148
301.189
301.232
301.275
301.32
301.366
301.414
301.463
301.513
301.565
301.619
301.674
301.731
301.79
301.85
301.913
301.978
302.045
302.113
302.184
302.257
302.331
302.405
302.48
302.554
300.004
300.011
300.019
300.027
300.035
300.044
300.053
300.062
300.072
300.082
300.092
300.103
300.114
300.126
300.138
300.15
300.163
300.176
300.19
300.204
300.218
300.233
300.249
300.265
300.281
300.298
300.315
300.333
300.352
300.371
300.39
300.411
300.431
300.453
300.475
300.497
300.521
300.544
300.569
300.594
300.62
300.647
300.674
300.702
300.731
300.761
300.791
300.822
300.855
300.888
300.921
300.956
300.992
301.029
301.067
301.105
301.145
301.186
301.228
301.271
301.316
301.362
301.409
301.457
301.507
301.558
301.61
301.664
301.72
301.777
301.836
301.897
301.959
302.023
302.088
302.155
302.222
302.291
302.359
302.428
302.495
300.004
300.011
300.019
300.027
300.035
300.044
300.053
300.062
300.072
300.082
300.092
300.103
300.114
300.126
300.138
300.15
300.163
300.176
300.19
300.204
300.218
300.233
300.249
300.265
300.281
300.298
300.315
300.333
300.352
300.371
300.39
300.41
300.431
300.452
300.474
300.497
300.52
300.544
300.568
300.594
300.619
300.646
300.673
300.701
300.73
300.76
300.79
300.821
300.853
300.886
300.92
300.954
300.99
301.026
301.064
301.102
301.142
301.182
301.224
301.267
301.311
301.356
301.402
301.449
301.498
301.548
301.6
301.653
301.707
301.762
301.819
301.877
301.937
301.997
302.059
302.121
302.185
302.248
302.311
302.373
302.435
300.004
300.011
300.019
300.027
300.035
300.044
300.053
300.062
300.072
300.082
300.092
300.103
300.114
300.126
300.138
300.15
300.163
300.176
300.19
300.204
300.218
300.233
300.248
300.264
300.281
300.298
300.315
300.333
300.351
300.37
300.39
300.41
300.431
300.452
300.474
300.496
300.52
300.543
300.568
300.593
300.619
300.645
300.672
300.7
300.729
300.758
300.788
300.819
300.851
300.884
300.917
300.952
300.987
301.023
301.06
301.098
301.137
301.178
301.219
301.261
301.304
301.348
301.394
301.44
301.488
301.537
301.587
301.638
301.691
301.744
301.799
301.854
301.911
301.968
302.026
302.085
302.144
302.202
302.261
302.318
302.374
300.004
300.011
300.019
300.027
300.035
300.044
300.053
300.062
300.072
300.082
300.092
300.103
300.114
300.126
300.138
300.15
300.163
300.176
300.189
300.203
300.218
300.233
300.248
300.264
300.281
300.297
300.315
300.333
300.351
300.37
300.39
300.41
300.43
300.452
300.473
300.496
300.519
300.543
300.567
300.592
300.617
300.644
300.671
300.699
300.727
300.756
300.786
300.817
300.849
300.881
300.914
300.949
300.983
301.019
301.056
301.094
301.132
301.172
301.212
301.254
301.296
301.34
301.384
301.43
301.476
301.524
301.572
301.622
301.672
301.723
301.776
301.829
301.882
301.936
301.991
302.046
302.1
302.155
302.208
302.261
302.313
300.004
300.011
300.019
300.027
300.035
300.044
300.053
300.062
300.072
300.082
300.092
300.103
300.114
300.126
300.137
300.15
300.163
300.176
300.189
300.203
300.218
300.233
300.248
300.264
300.28
300.297
300.315
300.332
300.351
300.37
300.389
300.409
300.43
300.451
300.473
300.495
300.518
300.542
300.566
300.591
300.616
300.642
300.669
300.697
300.725
300.754
300.784
300.815
300.846
300.878
300.911
300.945
300.979
301.015
301.051
301.088
301.126
301.165
301.204
301.245
301.287
301.329
301.372
301.417
301.462
301.508
301.555
301.602
301.651
301.7
301.75
301.8
301.851
301.902
301.953
302.004
302.055
302.105
302.155
302.204
302.252
300.004
300.011
300.019
300.027
300.035
300.044
300.053
300.062
300.072
300.082
300.092
300.103
300.114
300.125
300.137
300.15
300.162
300.176
300.189
300.203
300.218
300.233
300.248
300.264
300.28
300.297
300.314
300.332
300.35
300.369
300.389
300.409
300.429
300.45
300.472
300.494
300.517
300.54
300.565
300.589
300.615
300.641
300.667
300.695
300.723
300.752
300.781
300.812
300.842
300.874
300.907
300.94
300.974
301.009
301.045
301.081
301.118
301.156
301.195
301.235
301.276
301.317
301.359
301.402
301.446
301.49
301.535
301.581
301.627
301.674
301.721
301.768
301.816
301.864
301.912
301.96
302.007
302.054
302.1
302.146
302.191
300.004
300.011
300.019
300.027
300.035
300.044
300.053
300.062
300.072
300.082
300.092
300.103
300.114
300.125
300.137
300.15
300.162
300.175
300.189
300.203
300.217
300.232
300.248
300.263
300.28
300.297
300.314
300.332
300.35
300.369
300.388
300.408
300.428
300.449
300.471
300.493
300.516
300.539
300.563
300.588
300.613
300.639
300.665
300.692
300.72
300.749
300.778
300.808
300.838
300.87
300.902
300.935
300.968
301.002
301.037
301.073
301.11
301.147
301.185
301.223
301.263
301.303
301.344
301.385
301.427
301.47
301.513
301.557
301.601
301.645
301.69
301.735
301.779
301.824
301.869
301.914
301.958
302.002
302.045
302.087
302.129
300.004
300.011
300.019
300.027
300.035
300.044
300.053
300.062
300.072
300.082
300.092
300.103
300.114
300.125
300.137
300.149
300.162
300.175
300.189
300.203
300.217
300.232
300.247
300.263
300.279
300.296
300.313
300.331
300.349
300.368
300.387
300.407
300.427
300.448
300.47
300.492
300.514
300.537
300.561
300.586
300.611
300.636
300.662
300.689
300.717
300.745
300.774
300.803
300.834
300.864
300.896
300.928
300.961
300.995
301.029
301.064
301.099
301.136
301.173
301.21
301.248
301.287
301.326
301.366
301.407
301.447
301.489
301.53
301.572
301.614
301.656
301.698
301.741
301.783
301.825
301.866
301.907
301.948
301.988
302.028
302.067
300.004
300.011
300.019
300.027
300.035
300.044
300.053
300.062
300.071
300.081
300.092
300.103
300.114
300.125
300.137
300.149
300.162
300.175
300.189
300.202
300.217
300.232
300.247
300.263
300.279
300.296
300.313
300.33
300.348
300.367
300.386
300.406
300.426
300.447
300.468
300.49
300.513
300.536
300.559
300.583
300.608
300.633
300.659
300.686
300.713
300.741
300.769
300.798
300.828
300.858
300.889
300.921
300.953
300.986
301.019
301.053
301.088
301.123
301.159
301.195
301.232
301.269
301.307
301.345
301.384
301.423
301.462
301.501
301.541
301.581
301.621
301.66
301.7
301.739
301.778
301.817
301.856
301.894
301.931
301.968
302.004
300.004
300.011
300.019
300.027
300.035
300.044
300.052
300.062
300.071
300.081
300.092
300.102
300.114
300.125
300.137
300.149
300.162
300.175
300.188
300.202
300.217
300.231
300.246
300.262
300.278
300.295
300.312
300.33
300.348
300.366
300.385
300.405
300.425
300.445
300.467
300.488
300.51
300.533
300.557
300.58
300.605
300.63
300.656
300.682
300.709
300.736
300.764
300.792
300.822
300.851
300.882
300.912
300.944
300.976
301.008
301.041
301.075
301.109
301.144
301.179
301.214
301.25
301.286
301.322
301.359
301.396
301.433
301.471
301.508
301.546
301.583
301.62
301.657
301.694
301.731
301.767
301.803
301.839
301.874
301.908
301.942
300.004
300.011
300.019
300.027
300.035
300.043
300.052
300.062
300.071
300.081
300.092
300.102
300.113
300.125
300.137
300.149
300.161
300.174
300.188
300.202
300.216
300.231
300.246
300.262
300.278
300.294
300.311
300.329
300.347
300.365
300.384
300.403
300.423
300.444
300.465
300.486
300.508
300.531
300.554
300.577
300.601
300.626
300.651
300.677
300.703
300.73
300.758
300.786
300.814
300.843
300.873
300.903
300.933
300.964
300.996
301.028
301.06
301.093
301.127
301.16
301.194
301.228
301.263
301.298
301.333
301.368
301.403
301.438
301.474
301.509
301.544
301.579
301.614
301.648
301.682
301.716
301.75
301.783
301.815
301.848
301.879
300.004
300.011
300.019
300.027
300.035
300.043
300.052
300.062
300.071
300.081
300.091
300.102
300.113
300.125
300.136
300.149
300.161
300.174
300.188
300.201
300.216
300.23
300.245
300.261
300.277
300.293
300.31
300.327
300.345
300.364
300.382
300.402
300.421
300.442
300.462
300.484
300.505
300.528
300.55
300.574
300.597
300.622
300.646
300.672
300.698
300.724
300.751
300.778
300.806
300.834
300.863
300.892
300.922
300.952
300.982
301.013
301.044
301.076
301.108
301.14
301.173
301.205
301.238
301.271
301.304
301.338
301.371
301.404
301.437
301.47
301.503
301.536
301.569
301.601
301.633
301.665
301.696
301.727
301.757
301.787
301.817
300.004
300.011
300.019
300.027
300.035
300.043
300.052
300.062
300.071
300.081
300.091
300.102
300.113
300.124
300.136
300.148
300.161
300.174
300.187
300.201
300.215
300.23
300.245
300.26
300.276
300.292
300.309
300.326
300.344
300.362
300.381
300.4
300.419
300.439
300.46
300.481
300.502
300.524
300.546
300.569
300.593
300.617
300.641
300.666
300.691
300.717
300.743
300.769
300.797
300.824
300.852
300.88
300.909
300.938
300.967
300.997
301.027
301.057
301.088
301.119
301.149
301.181
301.212
301.243
301.274
301.306
301.337
301.369
301.4
301.431
301.462
301.492
301.523
301.553
301.583
301.612
301.642
301.67
301.699
301.727
301.754
300.004
300.011
300.019
300.026
300.035
300.043
300.052
300.061
300.071
300.081
300.091
300.102
300.113
300.124
300.136
300.148
300.16
300.173
300.187
300.2
300.214
300.229
300.244
300.259
300.275
300.291
300.308
300.325
300.342
300.36
300.379
300.397
300.417
300.437
300.457
300.477
300.499
300.52
300.542
300.565
300.588
300.611
300.635
300.659
300.684
300.709
300.734
300.76
300.786
300.813
300.84
300.867
300.895
300.923
300.951
300.979
301.008
301.037
301.066
301.096
301.125
301.154
301.184
301.214
301.243
301.273
301.302
301.332
301.361
301.39
301.419
301.448
301.476
301.505
301.532
301.56
301.587
301.614
301.641
301.667
301.692
300.004
300.011
300.018
300.026
300.035
300.043
300.052
300.061
300.071
300.081
300.091
300.101
300.112
300.124
300.135
300.147
300.16
300.173
300.186
300.2
300.214
300.228
300.243
300.258
300.274
300.29
300.306
300.323
300.34
300.358
300.376
300.395
300.414
300.433
300.453
300.474
300.494
300.516
300.537
300.559
300.582
300.605
300.628
300.651
300.675
300.7
300.724
300.75
300.775
300.801
300.827
300.853
300.88
300.906
300.933
300.961
300.988
301.016
301.043
301.071
301.099
301.127
301.155
301.183
301.211
301.239
301.266
301.294
301.322
301.349
301.376
301.403
301.429
301.456
301.482
301.508
301.533
301.558
301.583
301.607
301.631
300.004
300.011
300.018
300.026
300.035
300.043
300.052
300.061
300.071
300.08
300.091
300.101
300.112
300.123
300.135
300.147
300.159
300.172
300.185
300.199
300.213
300.227
300.242
300.257
300.272
300.288
300.304
300.321
300.338
300.356
300.374
300.392
300.411
300.43
300.45
300.47
300.49
300.511
300.532
300.553
300.575
300.598
300.62
300.643
300.666
300.69
300.714
300.738
300.763
300.788
300.813
300.838
300.863
300.889
300.915
300.941
300.967
300.993
301.019
301.046
301.072
301.099
301.125
301.151
301.178
301.204
301.23
301.256
301.282
301.307
301.332
301.358
301.382
301.407
301.431
301.455
301.479
301.503
301.526
301.548
301.571
300.004
300.011
300.018
300.026
300.034
300.043
300.052
300.061
300.07
300.08
300.09
300.101
300.112
300.123
300.134
300.146
300.159
300.171
300.184
300.198
300.212
300.226
300.24
300.255
300.271
300.286
300.303
300.319
300.336
300.353
300.371
300.389
300.407
300.426
300.445
300.465
300.485
300.505
300.526
300.547
300.568
300.59
300.612
300.634
300.657
300.679
300.703
300.726
300.75
300.773
300.797
300.822
300.846
300.871
300.895
300.92
300.945
300.97
300.995
301.02
301.045
301.069
301.094
301.119
301.144
301.168
301.193
301.217
301.241
301.265
301.289
301.312
301.336
301.359
301.381
301.404
301.426
301.448
301.469
301.491
301.512
300.004
300.011
300.018
300.026
300.034
300.043
300.052
300.061
300.07
300.08
300.09
300.1
300.111
300.122
300.134
300.146
300.158
300.171
300.183
300.197
300.21
300.225
300.239
300.254
300.269
300.284
300.3
300.317
300.333
300.35
300.368
300.385
300.404
300.422
300.441
300.46
300.479
300.499
300.519
300.54
300.56
300.582
300.603
300.624
300.646
300.668
300.69
300.713
300.736
300.758
300.781
300.805
300.828
300.851
300.875
300.898
300.922
300.945
300.969
300.993
301.016
301.04
301.063
301.086
301.11
301.133
301.156
301.178
301.201
301.223
301.246
301.267
301.289
301.311
301.332
301.353
301.374
301.394
301.414
301.434
301.454
300.004
300.011
300.018
300.026
300.034
300.043
300.051
300.06
300.07
300.08
300.09
300.1
300.111
300.122
300.133
300.145
300.157
300.17
300.182
300.196
300.209
300.223
300.237
300.252
300.267
300.282
300.298
300.314
300.33
300.347
300.364
300.382
300.399
300.417
300.436
300.454
300.473
300.493
300.512
300.532
300.552
300.573
300.593
300.614
300.635
300.656
300.678
300.699
300.721
300.743
300.765
300.787
300.809
300.831
300.854
300.876
300.898
300.921
300.943
300.965
300.987
301.01
301.032
301.054
301.075
301.097
301.118
301.14
301.161
301.182
301.203
301.223
301.244
301.264
301.283
301.303
301.322
301.342
301.36
301.379
301.397
300.004
300.011
300.018
300.026
300.034
300.042
300.051
300.06
300.07
300.079
300.089
300.099
300.11
300.121
300.132
300.144
300.156
300.169
300.181
300.194
300.208
300.221
300.236
300.25
300.265
300.28
300.295
300.311
300.327
300.344
300.36
300.377
300.395
300.412
300.43
300.449
300.467
300.486
300.505
300.524
300.544
300.563
300.583
300.603
300.623
300.644
300.664
300.685
300.706
300.727
300.748
300.769
300.79
300.811
300.832
300.853
300.875
300.896
300.917
300.938
300.959
300.979
301
301.021
301.041
301.062
301.082
301.102
301.122
301.141
301.161
301.18
301.199
301.218
301.236
301.255
301.273
301.291
301.308
301.325
301.343
300.004
300.011
300.018
300.026
300.034
300.042
300.051
300.06
300.069
300.079
300.089
300.099
300.11
300.12
300.132
300.143
300.155
300.167
300.18
300.193
300.206
300.22
300.234
300.248
300.262
300.277
300.293
300.308
300.324
300.34
300.356
300.373
300.39
300.407
300.425
300.442
300.46
300.478
300.497
300.516
300.534
300.553
300.573
300.592
300.611
300.631
300.651
300.67
300.69
300.71
300.73
300.75
300.77
300.791
300.811
300.831
300.851
300.871
300.891
300.91
300.93
300.95
300.969
300.989
301.008
301.027
301.046
301.065
301.083
301.102
301.12
301.138
301.156
301.173
301.191
301.208
301.225
301.242
301.258
301.274
301.29
300.003
300.011
300.018
300.026
300.034
300.042
300.051
300.06
300.069
300.078
300.088
300.098
300.109
300.12
300.131
300.142
300.154
300.166
300.179
300.191
300.205
300.218
300.232
300.246
300.26
300.275
300.289
300.305
300.32
300.336
300.352
300.368
300.385
300.402
300.419
300.436
300.453
300.471
300.489
300.507
300.525
300.543
300.562
300.58
300.599
300.618
300.637
300.656
300.675
300.694
300.713
300.732
300.751
300.77
300.789
300.808
300.827
300.846
300.865
300.883
300.902
300.921
300.939
300.957
300.975
300.993
301.011
301.029
301.046
301.064
301.081
301.098
301.114
301.131
301.147
301.163
301.179
301.195
301.21
301.225
301.24
300.003
300.011
300.018
300.026
300.034
300.042
300.05
300.059
300.068
300.078
300.088
300.098
300.108
300.119
300.13
300.141
300.153
300.165
300.177
300.19
300.203
300.216
300.229
300.243
300.257
300.272
300.286
300.301
300.316
300.332
300.347
300.363
300.379
300.396
300.412
300.429
300.446
300.463
300.48
300.498
300.515
300.533
300.551
300.569
300.587
300.605
300.623
300.641
300.659
300.677
300.695
300.714
300.732
300.75
300.768
300.786
300.804
300.822
300.84
300.857
300.875
300.892
300.91
300.927
300.944
300.961
300.978
300.994
301.011
301.027
301.043
301.059
301.075
301.09
301.106
301.121
301.136
301.15
301.165
301.179
301.193
300.003
300.01
300.018
300.025
300.033
300.041
300.05
300.059
300.068
300.077
300.087
300.097
300.107
300.118
300.129
300.14
300.152
300.164
300.176
300.188
300.201
300.214
300.227
300.241
300.255
300.269
300.283
300.298
300.312
300.328
300.343
300.358
300.374
300.39
300.406
300.422
300.439
300.455
300.472
300.489
300.506
300.523
300.54
300.557
300.574
300.592
300.609
300.626
300.644
300.661
300.678
300.696
300.713
300.73
300.748
300.765
300.782
300.799
300.816
300.832
300.849
300.866
300.882
300.898
300.914
300.93
300.946
300.962
300.977
300.993
301.008
301.023
301.038
301.052
301.067
301.081
301.095
301.109
301.123
301.136
301.149
300.003
300.01
300.018
300.025
300.033
300.041
300.05
300.058
300.067
300.077
300.086
300.096
300.107
300.117
300.128
300.139
300.15
300.162
300.174
300.186
300.199
300.212
300.225
300.238
300.252
300.266
300.28
300.294
300.308
300.323
300.338
300.353
300.369
300.384
300.4
300.415
300.431
300.447
300.464
300.48
300.496
300.513
300.529
300.546
300.562
300.579
300.596
300.612
300.629
300.646
300.662
300.679
300.695
300.712
300.728
300.744
300.761
300.777
300.793
300.809
300.825
300.84
300.856
300.871
300.887
300.902
300.917
300.932
300.946
300.961
300.975
300.989
301.003
301.017
301.031
301.044
301.058
301.071
301.084
301.096
301.109
300.003
300.01
300.018
300.025
300.033
300.041
300.049
300.058
300.067
300.076
300.086
300.096
300.106
300.116
300.127
300.138
300.149
300.161
300.172
300.185
300.197
300.21
300.222
300.236
300.249
300.263
300.276
300.29
300.305
300.319
300.334
300.348
300.363
300.378
300.394
300.409
300.424
300.44
300.456
300.471
300.487
300.503
300.519
300.535
300.551
300.567
300.583
300.599
300.615
300.631
300.647
300.663
300.678
300.694
300.71
300.726
300.741
300.756
300.772
300.787
300.802
300.817
300.832
300.847
300.861
300.875
300.89
300.904
300.918
300.932
300.945
300.959
300.972
300.985
300.998
301.011
301.024
301.036
301.048
301.061
301.072
300.003
300.01
300.017
300.025
300.033
300.041
300.049
300.058
300.066
300.076
300.085
300.095
300.105
300.115
300.126
300.137
300.148
300.159
300.171
300.183
300.195
300.207
300.22
300.233
300.246
300.26
300.273
300.287
300.301
300.315
300.329
300.344
300.358
300.373
300.388
300.403
300.418
300.433
300.448
300.463
300.479
300.494
300.509
300.525
300.54
300.556
300.571
300.587
300.602
300.617
300.633
300.648
300.663
300.678
300.693
300.708
300.723
300.738
300.753
300.767
300.782
300.796
300.81
300.824
300.838
300.852
300.866
300.879
300.892
300.906
300.919
300.931
300.944
300.957
300.969
300.981
300.993
301.005
301.017
301.029
301.04
300.003
300.01
300.017
300.025
300.032
300.04
300.049
300.057
300.066
300.075
300.084
300.094
300.104
300.114
300.125
300.135
300.146
300.158
300.169
300.181
300.193
300.205
300.218
300.231
300.244
300.257
300.27
300.283
300.297
300.311
300.325
300.339
300.353
300.368
300.382
300.397
300.412
300.426
300.441
300.456
300.471
300.486
300.501
300.516
300.531
300.546
300.561
300.576
300.59
300.605
300.62
300.635
300.65
300.664
300.679
300.693
300.707
300.722
300.736
300.75
300.764
300.777
300.791
300.805
300.818
300.831
300.844
300.857
300.87
300.883
300.895
300.908
300.92
300.932
300.944
300.955
300.967
300.978
300.99
301.001
301.012
300.003
300.01
300.017
300.025
300.032
300.04
300.048
300.057
300.065
300.074
300.084
300.093
300.103
300.113
300.124
300.134
300.145
300.156
300.168
300.18
300.191
300.204
300.216
300.228
300.241
300.254
300.267
300.28
300.294
300.308
300.321
300.335
300.349
300.363
300.377
300.392
300.406
300.42
300.435
300.449
300.464
300.479
300.493
300.508
300.522
300.537
300.551
300.566
300.58
300.595
300.609
300.624
300.638
300.652
300.666
300.68
300.694
300.708
300.721
300.735
300.748
300.762
300.775
300.788
300.801
300.814
300.826
300.839
300.851
300.863
300.876
300.888
300.899
300.911
300.922
300.934
300.945
300.956
300.967
300.978
300.988
300.003
300.01
300.017
300.024
300.032
300.04
300.048
300.056
300.065
300.074
300.083
300.093
300.102
300.113
300.123
300.133
300.144
300.155
300.167
300.178
300.19
300.202
300.214
300.226
300.239
300.252
300.265
300.278
300.291
300.305
300.318
300.332
300.345
300.359
300.373
300.387
300.401
300.416
300.43
300.444
300.458
300.473
300.487
300.501
300.515
300.53
300.544
300.558
300.572
300.586
300.6
300.614
300.628
300.642
300.656
300.669
300.683
300.696
300.71
300.723
300.736
300.749
300.762
300.774
300.787
300.799
300.812
300.824
300.836
300.848
300.86
300.871
300.883
300.894
300.905
300.916
300.927
300.938
300.949
300.959
300.969
300.003
300.01
300.017
300.024
300.032
300.04
300.048
300.056
300.065
300.074
300.083
300.092
300.102
300.112
300.122
300.133
300.143
300.154
300.165
300.177
300.189
300.2
300.213
300.225
300.237
300.25
300.263
300.276
300.289
300.302
300.315
300.329
300.343
300.356
300.37
300.384
300.398
300.412
300.426
300.44
300.454
300.468
300.482
300.496
300.51
300.524
300.538
300.552
300.566
300.58
300.593
300.607
300.621
300.634
300.648
300.661
300.674
300.688
300.701
300.714
300.726
300.739
300.752
300.764
300.776
300.789
300.801
300.813
300.825
300.836
300.848
300.859
300.87
300.881
300.892
300.903
300.914
300.924
300.935
300.945
300.955
300.003
300.01
300.017
300.024
300.032
300.039
300.047
300.056
300.064
300.073
300.082
300.092
300.101
300.111
300.121
300.132
300.143
300.153
300.165
300.176
300.188
300.199
300.211
300.224
300.236
300.249
300.261
300.274
300.287
300.3
300.314
300.327
300.34
300.354
300.368
300.381
300.395
300.409
300.423
300.437
300.45
300.464
300.478
300.492
300.506
300.52
300.534
300.547
300.561
300.575
300.588
300.602
300.615
300.629
300.642
300.655
300.668
300.681
300.694
300.707
300.72
300.732
300.745
300.757
300.769
300.781
300.793
300.805
300.817
300.828
300.839
300.851
300.862
300.873
300.883
300.894
300.905
300.915
300.925
300.935
300.945
300.003
300.01
300.017
300.024
300.031
300.039
300.047
300.055
300.064
300.073
300.082
300.091
300.101
300.111
300.121
300.131
300.142
300.153
300.164
300.175
300.187
300.199
300.211
300.223
300.235
300.248
300.26
300.273
300.286
300.299
300.312
300.326
300.339
300.352
300.366
300.38
300.393
300.407
300.421
300.435
300.448
300.462
300.476
300.49
300.504
300.517
300.531
300.545
300.558
300.572
300.585
300.599
300.612
300.626
300.639
300.652
300.665
300.678
300.691
300.703
300.716
300.728
300.741
300.753
300.765
300.777
300.789
300.8
300.812
300.823
300.835
300.846
300.857
300.868
300.878
300.889
300.899
300.91
300.92
300.93
300.94
300.003
300.01
300.017
300.024
300.031
300.039
300.047
300.055
300.064
300.073
300.082
300.091
300.101
300.111
300.121
300.131
300.142
300.153
300.164
300.175
300.186
300.198
300.21
300.222
300.235
300.247
300.26
300.272
300.285
300.298
300.312
300.325
300.338
300.352
300.365
300.379
300.392
300.406
300.42
300.434
300.447
300.461
300.475
300.489
300.502
300.516
300.53
300.544
300.557
300.571
300.584
300.598
300.611
300.624
300.637
300.65
300.663
300.676
300.689
300.702
300.714
300.727
300.739
300.751
300.763
300.775
300.787
300.798
300.81
300.821
300.832
300.844
300.855
300.865
300.876
300.887
300.897
300.907
300.917
300.927
300.937
300.003
300.01
300.017
300.024
300.031
300.039
300.047
300.055
300.064
300.073
300.082
300.091
300.101
300.11
300.121
300.131
300.142
300.152
300.164
300.175
300.186
300.198
300.21
300.222
300.234
300.247
300.259
300.272
300.285
300.298
300.311
300.325
300.338
300.351
300.365
300.379
300.392
300.406
300.42
300.433
300.447
300.461
300.475
300.488
300.502
300.516
300.53
300.543
300.557
300.57
300.584
300.597
300.611
300.624
300.637
300.65
300.663
300.676
300.689
300.701
300.714
300.726
300.738
300.751
300.763
300.775
300.786
300.798
300.81
300.821
300.832
300.843
300.854
300.865
300.876
300.886
300.897
300.907
300.917
300.927
300.937
303.022
303.15
303.228
303.3
303.363
303.415
303.45
303.49
303.529
303.567
303.598
303.632
303.667
303.701
303.735
303.768
303.799
303.826
303.856
303.885
303.914
303.944
303.974
304.002
304.032
304.06
304.088
304.116
304.144
304.17
304.198
304.224
304.25
304.277
304.303
304.328
304.354
304.379
304.404
304.429
304.454
304.477
304.503
304.53
304.557
304.582
304.605
304.63
304.656
304.682
304.706
304.728
304.753
304.778
304.803
304.829
304.855
304.88
304.906
304.93
304.951
304.974
304.997
305.022
305.046
305.071
305.096
305.12
305.145
305.169
305.193
305.217
305.24
305.264
305.287
305.311
305.334
305.358
305.38
305.405
305.433
305.459
305.482
305.506
305.527
305.548
305.573
305.6
305.625
305.647
305.667
305.692
305.719
305.741
305.767
305.794
305.819
305.842
305.868
305.892
305.914
305.939
305.961
305.985
306.012
306.04
306.065
306.086
306.11
306.131
306.155
306.181
306.209
306.237
306.262
306.282
306.306
306.333
306.36
306.384
306.402
306.425
306.45
306.474
306.498
306.516
306.537
306.559
306.581
306.603
306.624
306.644
306.663
306.681
306.698
306.713
306.728
306.741
306.752
306.762
306.77
306.777
306.781
306.784
306.784
306.781
306.776
306.769
306.758
306.742
306.722
306.698
306.672
306.641
306.604
306.561
306.513
306.429
306.351
306.252
306.123
302.92
303.034
303.122
303.197
303.263
303.318
303.364
303.408
303.449
303.489
303.525
303.561
303.597
303.632
303.667
303.7
303.732
303.763
303.793
303.823
303.853
303.884
303.913
303.943
303.972
304.001
304.03
304.058
304.086
304.114
304.141
304.168
304.195
304.222
304.248
304.274
304.3
304.326
304.351
304.377
304.402
304.427
304.452
304.479
304.505
304.53
304.555
304.58
304.606
304.631
304.656
304.68
304.704
304.729
304.755
304.78
304.806
304.832
304.857
304.881
304.904
304.927
304.951
304.976
305
305.025
305.05
305.075
305.099
305.124
305.148
305.172
305.196
305.219
305.243
305.267
305.291
305.314
305.338
305.363
305.39
305.415
305.439
305.463
305.485
305.508
305.532
305.558
305.583
305.606
305.628
305.652
305.678
305.702
305.728
305.754
305.78
305.803
305.829
305.853
305.876
305.901
305.924
305.949
305.975
306.002
306.028
306.05
306.074
306.096
306.121
306.147
306.174
306.202
306.227
306.248
306.273
306.299
306.325
306.349
306.37
306.393
306.417
306.442
306.465
306.485
306.506
306.528
306.551
306.572
306.594
306.614
306.633
306.651
306.669
306.685
306.699
306.712
306.724
306.734
306.743
306.749
306.754
306.757
306.757
306.755
306.75
306.742
306.731
306.715
306.695
306.671
306.644
306.612
306.575
306.53
306.478
306.397
306.315
306.211
306.069
302.838
302.937
303.023
303.099
303.165
303.223
303.275
303.322
303.366
303.408
303.448
303.486
303.523
303.559
303.595
303.629
303.662
303.695
303.726
303.758
303.788
303.819
303.85
303.88
303.91
303.939
303.968
303.997
304.026
304.054
304.082
304.109
304.136
304.163
304.19
304.217
304.243
304.269
304.295
304.321
304.346
304.372
304.398