/*--------------------------------*- C++ -*----------------------------------*\
| =========                 |                                                 |
| \\      /  F ield         | OpenFOAM: The Open Source CFD Toolbox           |
|  \\    /   O peration     | Version:  2106                                  |
|   \\  /    A nd           | Website:  www.openfoam.com                      |
|    \\/     M anipulation  |                                                 |
\*---------------------------------------------------------------------------*/
FoamFile
{
    version     2.0;
    format      ascii;
    arch        "LSB;label=32;scalar=64";
    class       volVectorField;
    location    "9";
    object      U;
}
// * * * * * * * * * * * * * * * * * * * * * * * * * * * * * * * * * * * * * //

dimensions      [0 1 -1 0 0 0 0];

internalField   nonuniform List<vector> 
12013
(
(0.10004 -1.10541e-05 0)
(0.100202 -2.04719e-05 0)
(0.100465 -2.92314e-05 0)
(0.100806 -3.73302e-05 0)
(0.101218 -4.4956e-05 0)
(0.101694 -5.22142e-05 0)
(0.102228 -5.91717e-05 0)
(0.102816 -6.58816e-05 0)
(0.103452 -7.23839e-05 0)
(0.104134 -7.87107e-05 0)
(0.104857 -8.48867e-05 0)
(0.105618 -9.0932e-05 0)
(0.106415 -9.68627e-05 0)
(0.107245 -0.000102692 0)
(0.108105 -0.000108431 0)
(0.108994 -0.000114089 0)
(0.10991 -0.000119671 0)
(0.110849 -0.000125183 0)
(0.111811 -0.000130629 0)
(0.112794 -0.000136012 0)
(0.113797 -0.000141334 0)
(0.114816 -0.000146595 0)
(0.115852 -0.000151794 0)
(0.116903 -0.000156932 0)
(0.117967 -0.000162007 0)
(0.119043 -0.000167015 0)
(0.120129 -0.000171955 0)
(0.121225 -0.000176823 0)
(0.122329 -0.000181613 0)
(0.12344 -0.000186322 0)
(0.124557 -0.000190943 0)
(0.125678 -0.000195471 0)
(0.126802 -0.000199898 0)
(0.127929 -0.000204215 0)
(0.129057 -0.000208416 0)
(0.130185 -0.000212489 0)
(0.131312 -0.000216425 0)
(0.132437 -0.000220211 0)
(0.133558 -0.000223834 0)
(0.134676 -0.000227281 0)
(0.135787 -0.000230534 0)
(0.136892 -0.000233577 0)
(0.137989 -0.000236389 0)
(0.139077 -0.000238948 0)
(0.140155 -0.000241231 0)
(0.141222 -0.000243207 0)
(0.142275 -0.000244846 0)
(0.143315 -0.000246113 0)
(0.144339 -0.000246967 0)
(0.145346 -0.000247362 0)
(0.146335 -0.000247244 0)
(0.147303 -0.000246552 0)
(0.148249 -0.000245216 0)
(0.149171 -0.000243153 0)
(0.150067 -0.000240266 0)
(0.150934 -0.000236441 0)
(0.15177 -0.000231544 0)
(0.152572 -0.000225413 0)
(0.153336 -0.000217853 0)
(0.154059 -0.000208631 0)
(0.154737 -0.000197458 0)
(0.155363 -0.000183978 0)
(0.155934 -0.000167748 0)
(0.156441 -0.000148208 0)
(0.156876 -0.000124643 0)
(0.15723 -9.61257e-05 0)
(0.157489 -6.14403e-05 0)
(0.15764 -1.89602e-05 0)
(0.157661 3.35371e-05 0)
(0.15753 9.92111e-05 0)
(0.157212 0.000182582 0)
(0.156665 0.000290301 0)
(0.155829 0.000432474 0)
(0.154618 0.000624954 0)
(0.152908 0.000893495 0)
(0.150515 0.00128143 0)
(0.147149 0.00186445 0)
(0.142331 0.00278291 0)
(0.135256 0.00434104 0)
(0.124805 0.00743663 0)
(0.112803 0.016308 0)
(0.100037 -3.37516e-05 0)
(0.100198 -6.27663e-05 0)
(0.10046 -8.96678e-05 0)
(0.1008 -0.000114523 0)
(0.101211 -0.000137927 0)
(0.101686 -0.000160201 0)
(0.102219 -0.000181549 0)
(0.102806 -0.000202136 0)
(0.103441 -0.000222086 0)
(0.104122 -0.000241495 0)
(0.104844 -0.00026044 0)
(0.105604 -0.000278982 0)
(0.1064 -0.000297173 0)
(0.107229 -0.000315052 0)
(0.108088 -0.000332653 0)
(0.108976 -0.000350002 0)
(0.10989 -0.000367119 0)
(0.110828 -0.000384021 0)
(0.111789 -0.00040072 0)
(0.11277 -0.000417223 0)
(0.113771 -0.000433538 0)
(0.11479 -0.000449664 0)
(0.115824 -0.000465603 0)
(0.116873 -0.000481351 0)
(0.117935 -0.000496904 0)
(0.119009 -0.000512254 0)
(0.120094 -0.000527392 0)
(0.121188 -0.000542307 0)
(0.12229 -0.000556985 0)
(0.1234 -0.000571412 0)
(0.124514 -0.00058557 0)
(0.125633 -0.00059944 0)
(0.126756 -0.000612999 0)
(0.127881 -0.000626224 0)
(0.129007 -0.000639089 0)
(0.130133 -0.000651562 0)
(0.131257 -0.000663613 0)
(0.13238 -0.000675204 0)
(0.133499 -0.000686296 0)
(0.134614 -0.000696845 0)
(0.135723 -0.000706802 0)
(0.136826 -0.000716112 0)
(0.13792 -0.000724715 0)
(0.139006 -0.000732543 0)
(0.140081 -0.000739521 0)
(0.141145 -0.000745562 0)
(0.142196 -0.000750571 0)
(0.143233 -0.00075444 0)
(0.144255 -0.000757043 0)
(0.145259 -0.000758241 0)
(0.146245 -0.00075787 0)
(0.14721 -0.000755744 0)
(0.148154 -0.000751647 0)
(0.149073 -0.000745327 0)
(0.149967 -0.000736491 0)
(0.150832 -0.000724792 0)
(0.151665 -0.000709818 0)
(0.152465 -0.00069108 0)
(0.153228 -0.00066799 0)
(0.15395 -0.000639833 0)
(0.154627 -0.00060574 0)
(0.155254 -0.000564635 0)
(0.155825 -0.00051518 0)
(0.156334 -0.000455689 0)
(0.156774 -0.000384016 0)
(0.157133 -0.000297385 0)
(0.157402 -0.00019217 0)
(0.157565 -6.35429e-05 0)
(0.157606 9.50304e-05 0)
(0.157502 0.00029269 0)
(0.157225 0.000542392 0)
(0.156737 0.000862946 0)
(0.15599 0.00128238 0)
(0.154918 0.0018436 0)
(0.153432 0.00261407 0)
(0.151411 0.0037024 0)
(0.14869 0.00528639 0)
(0.145044 0.00765986 0)
(0.140197 0.0113127 0)
(0.134161 0.0169731 0)
(0.129273 0.0250535 0)
(0.100033 -5.73681e-05 0)
(0.100193 -0.000107662 0)
(0.100453 -0.000153996 0)
(0.100791 -0.000196791 0)
(0.101199 -0.00023708 0)
(0.101672 -0.000275415 0)
(0.102204 -0.000312153 0)
(0.102788 -0.000347577 0)
(0.103421 -0.000381901 0)
(0.1041 -0.000415293 0)
(0.104819 -0.000447883 0)
(0.105577 -0.00047978 0)
(0.106371 -0.000511069 0)
(0.107197 -0.00054182 0)
(0.108054 -0.000572091 0)
(0.108939 -0.000601926 0)
(0.10985 -0.000631361 0)
(0.110786 -0.000660423 0)
(0.111744 -0.000689134 0)
(0.112723 -0.000717508 0)
(0.113721 -0.000745554 0)
(0.114736 -0.000773275 0)
(0.115767 -0.000800672 0)
(0.116813 -0.000827738 0)
(0.117872 -0.000854467 0)
(0.118943 -0.000880844 0)
(0.120024 -0.000906855 0)
(0.121115 -0.00093248 0)
(0.122213 -0.000957696 0)
(0.123318 -0.000982477 0)
(0.124429 -0.00100679 0)
(0.125544 -0.00103061 0)
(0.126663 -0.00105389 0)
(0.127783 -0.0010766 0)
(0.128905 -0.00109868 0)
(0.130027 -0.00112008 0)
(0.131147 -0.00114076 0)
(0.132265 -0.00116064 0)
(0.133379 -0.00117967 0)
(0.134489 -0.00119775 0)
(0.135594 -0.00121482 0)
(0.136691 -0.00123077 0)
(0.137781 -0.00124551 0)
(0.138861 -0.00125891 0)
(0.139931 -0.00127084 0)
(0.14099 -0.00128117 0)
(0.142036 -0.00128973 0)
(0.143067 -0.00129632 0)
(0.144083 -0.00130074 0)
(0.145082 -0.00130276 0)
(0.146063 -0.00130208 0)
(0.147023 -0.0012984 0)
(0.147961 -0.00129134 0)
(0.148875 -0.00128048 0)
(0.149764 -0.00126533 0)
(0.150624 -0.00124529 0)
(0.151453 -0.00121967 0)
(0.152249 -0.00118765 0)
(0.153008 -0.00114824 0)
(0.153727 -0.00110025 0)
(0.154402 -0.00104221 0)
(0.155029 -0.00097235 0)
(0.155601 -0.000888447 0)
(0.156114 -0.000787728 0)
(0.156559 -0.000666679 0)
(0.156929 -0.000520799 0)
(0.157213 -0.000344245 0)
(0.157399 -0.000129338 0)
(0.157473 0.00013416 0)
(0.157416 0.000460276 0)
(0.157207 0.000868419 0)
(0.156818 0.00138601 0)
(0.156218 0.00205245 0)
(0.155368 0.00292526 0)
(0.154223 0.00408962 0)
(0.152738 0.00567242 0)
(0.150881 0.00786104 0)
(0.148657 0.0109229 0)
(0.14618 0.0152103 0)
(0.143885 0.0210347 0)
(0.143061 0.0278837 0)
(0.10003 -8.17002e-05 0)
(0.100187 -0.000155036 0)
(0.100444 -0.000222143 0)
(0.100778 -0.00028416 0)
(0.101183 -0.000342521 0)
(0.101653 -0.000398034 0)
(0.102181 -0.000451223 0)
(0.102762 -0.000502502 0)
(0.103392 -0.000552183 0)
(0.104067 -0.000600507 0)
(0.104783 -0.000647667 0)
(0.105537 -0.000693818 0)
(0.106327 -0.000739085 0)
(0.10715 -0.000783571 0)
(0.108003 -0.000827356 0)
(0.108884 -0.000870506 0)
(0.109791 -0.000913074 0)
(0.110723 -0.0009551 0)
(0.111676 -0.000996613 0)
(0.112651 -0.00103763 0)
(0.113644 -0.00107818 0)
(0.114655 -0.00111824 0)
(0.115681 -0.00115784 0)
(0.116722 -0.00119695 0)
(0.117776 -0.00123557 0)
(0.118841 -0.00127367 0)
(0.119917 -0.00131124 0)
(0.121002 -0.00134825 0)
(0.122095 -0.00138466 0)
(0.123195 -0.00142044 0)
(0.124299 -0.00145554 0)
(0.125409 -0.00148991 0)
(0.126521 -0.0015235 0)
(0.127635 -0.00155625 0)
(0.12875 -0.00158809 0)
(0.129865 -0.00161896 0)
(0.130979 -0.00164876 0)
(0.13209 -0.00167741 0)
(0.133197 -0.00170481 0)
(0.1343 -0.00173084 0)
(0.135397 -0.0017554 0)
(0.136487 -0.00177835 0)
(0.137569 -0.00179953 0)
(0.138642 -0.00181878 0)
(0.139704 -0.00183591 0)
(0.140755 -0.00185071 0)
(0.141792 -0.00186295 0)
(0.142816 -0.00187236 0)
(0.143824 -0.00187864 0)
(0.144815 -0.00188145 0)
(0.145787 -0.00188039 0)
(0.146739 -0.001875 0)
(0.147669 -0.00186478 0)
(0.148576 -0.00184911 0)
(0.149457 -0.00182729 0)
(0.15031 -0.00179849 0)
(0.151133 -0.00176174 0)
(0.151923 -0.00171589 0)
(0.152678 -0.00165955 0)
(0.153393 -0.00159107 0)
(0.154066 -0.00150844 0)
(0.154692 -0.0014092 0)
(0.155267 -0.00129033 0)
(0.155785 -0.00114809 0)
(0.156241 -0.000977752 0)
(0.156626 -0.000773358 0)
(0.156934 -0.000527263 0)
(0.157154 -0.000229588 0)
(0.157276 0.000132547 0)
(0.157287 0.000576321 0)
(0.157173 0.00112468 0)
(0.15692 0.00180889 0)
(0.156513 0.00267169 0)
(0.155941 0.00377175 0)
(0.155197 0.00518942 0)
(0.154298 0.00703296 0)
(0.15329 0.00944215 0)
(0.152288 0.0125797 0)
(0.151518 0.016587 0)
(0.151369 0.0214315 0)
(0.15241 0.0264642 0)
(0.100027 -0.000106756 0)
(0.100181 -0.000204798 0)
(0.100433 -0.000294066 0)
(0.100763 -0.000376655 0)
(0.101164 -0.000454347 0)
(0.101629 -0.00052822 0)
(0.102152 -0.000598986 0)
(0.102729 -0.000667195 0)
(0.103354 -0.000733266 0)
(0.104024 -0.000797523 0)
(0.104736 -0.000860221 0)
(0.105485 -0.000921571 0)
(0.10627 -0.000981736 0)
(0.107087 -0.00104085 0)
(0.107935 -0.00109903 0)
(0.108811 -0.00115636 0)
(0.109712 -0.00121291 0)
(0.110638 -0.00126873 0)
(0.111586 -0.00132386 0)
(0.112554 -0.00137833 0)
(0.113541 -0.00143215 0)
(0.114545 -0.00148534 0)
(0.115565 -0.00153788 0)
(0.116599 -0.00158978 0)
(0.117646 -0.00164102 0)
(0.118704 -0.00169157 0)
(0.119773 -0.00174139 0)
(0.120851 -0.00179046 0)
(0.121936 -0.00183873 0)
(0.123027 -0.00188614 0)
(0.124124 -0.00193265 0)
(0.125225 -0.00197818 0)
(0.126329 -0.00202266 0)
(0.127435 -0.00206602 0)
(0.128541 -0.00210816 0)
(0.129647 -0.00214898 0)
(0.130751 -0.00218839 0)
(0.131853 -0.00222626 0)
(0.132951 -0.00226246 0)
(0.134044 -0.00229684 0)
(0.135131 -0.00232925 0)
(0.136211 -0.00235951 0)
(0.137283 -0.00238742 0)
(0.138346 -0.00241275 0)
(0.139398 -0.00243528 0)
(0.140438 -0.00245472 0)
(0.141465 -0.00247076 0)
(0.142478 -0.00248305 0)
(0.143475 -0.0024912 0)
(0.144456 -0.00249477 0)
(0.145417 -0.00249323 0)
(0.146359 -0.00248601 0)
(0.14728 -0.00247242 0)
(0.148177 -0.00245169 0)
(0.149048 -0.00242292 0)
(0.149893 -0.00238505 0)
(0.150708 -0.00233683 0)
(0.151491 -0.00227679 0)
(0.15224 -0.00220321 0)
(0.152951 -0.00211399 0)
(0.153622 -0.00200665 0)
(0.154249 -0.00187814 0)
(0.154829 -0.00172477 0)
(0.155356 -0.001542 0)
(0.155826 -0.00132422 0)
(0.156234 -0.00106438 0)
(0.156573 -0.000753676 0)
(0.156839 -0.0003809 0)
(0.157023 6.81838e-05 0)
(0.157121 0.000611416 0)
(0.157125 0.00127237 0)
(0.157033 0.00208136 0)
(0.156845 0.00307743 0)
(0.15657 0.0043103 0)
(0.15623 0.00584199 0)
(0.15587 0.00774647 0)
(0.155568 0.0101039 0)
(0.155456 0.0129821 0)
(0.155729 0.0163913 0)
(0.15664 0.0201858 0)
(0.158417 0.0238925 0)
(0.100024 -0.000132546 0)
(0.100175 -0.000256868 0)
(0.100421 -0.000369717 0)
(0.100745 -0.000474269 0)
(0.101141 -0.000572611 0)
(0.1016 -0.000666091 0)
(0.102118 -0.000755616 0)
(0.102689 -0.000841888 0)
(0.103308 -0.000925436 0)
(0.103972 -0.00100667 0)
(0.104677 -0.00108593 0)
(0.10542 -0.00116346 0)
(0.106199 -0.00123949 0)
(0.107009 -0.00131417 0)
(0.10785 -0.00138766 0)
(0.108719 -0.00146006 0)
(0.109613 -0.00153146 0)
(0.110532 -0.00160193 0)
(0.111472 -0.00167152 0)
(0.112432 -0.00174026 0)
(0.113411 -0.00180817 0)
(0.114407 -0.00187527 0)
(0.115419 -0.00194154 0)
(0.116444 -0.00200699 0)
(0.117482 -0.00207158 0)
(0.118532 -0.00213529 0)
(0.119591 -0.00219807 0)
(0.120659 -0.00225988 0)
(0.121734 -0.00232067 0)
(0.122816 -0.00238036 0)
(0.123903 -0.0024389 0)
(0.124993 -0.00249618 0)
(0.126086 -0.00255213 0)
(0.127181 -0.00260664 0)
(0.128277 -0.0026596 0)
(0.129371 -0.00271088 0)
(0.130464 -0.00276036 0)
(0.131554 -0.00280788 0)
(0.13264 -0.00285328 0)
(0.133721 -0.00289637 0)
(0.134796 -0.00293696 0)
(0.135864 -0.00297483 0)
(0.136923 -0.00300972 0)
(0.137973 -0.00304137 0)
(0.139012 -0.00306947 0)
(0.140039 -0.00309368 0)
(0.141054 -0.00311361 0)
(0.142054 -0.00312883 0)
(0.143038 -0.00313886 0)
(0.144006 -0.00314315 0)
(0.144955 -0.00314106 0)
(0.145885 -0.00313189 0)
(0.146793 -0.00311481 0)
(0.147679 -0.00308887 0)
(0.148539 -0.00305299 0)
(0.149374 -0.00300589 0)
(0.15018 -0.00294609 0)
(0.150956 -0.00287185 0)
(0.151699 -0.00278112 0)
(0.152407 -0.00267147 0)
(0.153077 -0.00254001 0)
(0.153706 -0.00238327 0)
(0.154293 -0.00219707 0)
(0.154832 -0.00197636 0)
(0.155322 -0.00171497 0)
(0.155758 -0.00140537 0)
(0.156138 -0.00103829 0)
(0.156459 -0.000602298 0)
(0.156718 -8.33191e-05 0)
(0.156914 0.000535567 0)
(0.15705 0.00127543 0)
(0.157129 0.00216203 0)
(0.157164 0.00322623 0)
(0.157175 0.00450401 0)
(0.157197 0.0060353 0)
(0.157281 0.00786048 0)
(0.157506 0.0100123 0)
(0.157978 0.0125 0)
(0.158832 0.0152801 0)
(0.160205 0.0182108 0)
(0.162178 0.0209992 0)
(0.100021 -0.000159083 0)
(0.100168 -0.000311179 0)
(0.100409 -0.000449044 0)
(0.100727 -0.000576973 0)
(0.101116 -0.000697334 0)
(0.101568 -0.000811719 0)
(0.102079 -0.000921243 0)
(0.102643 -0.00102676 0)
(0.103255 -0.00112893 0)
(0.103911 -0.00122824 0)
(0.104609 -0.00132511 0)
(0.105344 -0.00141986 0)
(0.106114 -0.00151274 0)
(0.106917 -0.00160397 0)
(0.107749 -0.00169371 0)
(0.108609 -0.00178211 0)
(0.109495 -0.00186927 0)
(0.110404 -0.00195527 0)
(0.111335 -0.00204018 0)
(0.112286 -0.00212403 0)
(0.113255 -0.00220686 0)
(0.114241 -0.00228867 0)
(0.115242 -0.00236946 0)
(0.116257 -0.00244921 0)
(0.117284 -0.00252791 0)
(0.118323 -0.0026055 0)
(0.119371 -0.00268195 0)
(0.120427 -0.00275719 0)
(0.121491 -0.00283116 0)
(0.12256 -0.00290377 0)
(0.123635 -0.00297494 0)
(0.124713 -0.00304457 0)
(0.125793 -0.00311255 0)
(0.126875 -0.00317874 0)
(0.127957 -0.00324302 0)
(0.129038 -0.00330524 0)
(0.130117 -0.00336524 0)
(0.131193 -0.00342282 0)
(0.132265 -0.0034778 0)
(0.133331 -0.00352995 0)
(0.134392 -0.00357903 0)
(0.135445 -0.00362477 0)
(0.136489 -0.00366689 0)
(0.137524 -0.00370504 0)
(0.138548 -0.00373887 0)
(0.13956 -0.00376796 0)
(0.140559 -0.00379187 0)
(0.141544 -0.00381007 0)
(0.142514 -0.003822 0)
(0.143466 -0.003827 0)
(0.144401 -0.00382434 0)
(0.145317 -0.00381318 0)
(0.146212 -0.00379257 0)
(0.147084 -0.0037614 0)
(0.147933 -0.00371843 0)
(0.148757 -0.0036622 0)
(0.149553 -0.00359103 0)
(0.150321 -0.00350297 0)
(0.151059 -0.00339572 0)
(0.151764 -0.00326662 0)
(0.152434 -0.00311251 0)
(0.153069 -0.00292965 0)
(0.153665 -0.00271365 0)
(0.154221 -0.00245923 0)
(0.154735 -0.00216015 0)
(0.155205 -0.00180891 0)
(0.155632 -0.00139661 0)
(0.156015 -0.000912608 0)
(0.156355 -0.000344297 0)
(0.156656 0.000323208 0)
(0.156925 0.00110634 0)
(0.157172 0.00202436 0)
(0.157414 0.00309844 0)
(0.157676 0.00435051 0)
(0.157994 0.00580111 0)
(0.158414 0.00746541 0)
(0.158999 0.00934671 0)
(0.159823 0.0114263 0)
(0.160965 0.0136494 0)
(0.162492 0.0159084 0)
(0.164422 0.018033 0)
(0.100018 -0.000186397 0)
(0.100162 -0.000367688 0)
(0.100396 -0.000532007 0)
(0.100707 -0.000684737 0)
(0.101088 -0.000828512 0)
(0.101533 -0.000965144 0)
(0.102036 -0.00109595 0)
(0.102591 -0.00122195 0)
(0.103195 -0.00134391 0)
(0.103842 -0.00146244 0)
(0.104531 -0.00157803 0)
(0.105257 -0.00169105 0)
(0.106018 -0.00180183 0)
(0.10681 -0.0019106 0)
(0.107633 -0.00201759 0)
(0.108482 -0.00212294 0)
(0.109357 -0.00222678 0)
(0.110256 -0.00232923 0)
(0.111175 -0.00243034 0)
(0.112115 -0.00253017 0)
(0.113072 -0.00262874 0)
(0.114046 -0.00272609 0)
(0.115035 -0.00282218 0)
(0.116038 -0.00291703 0)
(0.117052 -0.00301057 0)
(0.118078 -0.00310278 0)
(0.119112 -0.0031936 0)
(0.120155 -0.00328295 0)
(0.121205 -0.00337076 0)
(0.12226 -0.00345692 0)
(0.12332 -0.00354133 0)
(0.124383 -0.00362388 0)
(0.125449 -0.00370442 0)
(0.126515 -0.00378282 0)
(0.127582 -0.00385891 0)
(0.128647 -0.00393252 0)
(0.12971 -0.00400345 0)
(0.13077 -0.00407149 0)
(0.131825 -0.0041364 0)
(0.132875 -0.00419792 0)
(0.133918 -0.00425578 0)
(0.134954 -0.00430965 0)
(0.135982 -0.0043592 0)
(0.136999 -0.00440404 0)
(0.138006 -0.00444374 0)
(0.139001 -0.00447784 0)
(0.139983 -0.00450581 0)
(0.140951 -0.00452706 0)
(0.141903 -0.00454094 0)
(0.14284 -0.0045467 0)
(0.143758 -0.00454352 0)
(0.144658 -0.00453044 0)
(0.145538 -0.00450639 0)
(0.146397 -0.00447017 0)
(0.147233 -0.00442039 0)
(0.148045 -0.00435544 0)
(0.148832 -0.00427352 0)
(0.149592 -0.00417252 0)
(0.150325 -0.00405001 0)
(0.151028 -0.0039032 0)
(0.151701 -0.00372883 0)
(0.152342 -0.00352311 0)
(0.15295 -0.00328167 0)
(0.153525 -0.00299939 0)
(0.154067 -0.00267033 0)
(0.154576 -0.00228763 0)
(0.155053 -0.00184334 0)
(0.155501 -0.00132841 0)
(0.155923 -0.00073253 0)
(0.156328 -4.41823e-05 0)
(0.156723 0.000748579 0)
(0.157122 0.00165781 0)
(0.157542 0.00269567 0)
(0.158009 0.00387255 0)
(0.158551 0.00519496 0)
(0.159207 0.00666255 0)
(0.160018 0.00826403 0)
(0.161032 0.00997211 0)
(0.16229 0.0117381 0)
(0.16382 0.0134883 0)
(0.165618 0.0151261 0)
(0.100015 -0.000214526 0)
(0.100155 -0.000426371 0)
(0.100383 -0.000618575 0)
(0.100687 -0.000797526 0)
(0.10106 -0.000966128 0)
(0.101496 -0.00112638 0)
(0.101989 -0.00127978 0)
(0.102535 -0.00142753 0)
(0.103129 -0.00157051 0)
(0.103766 -0.00170944 0)
(0.104444 -0.00184488 0)
(0.105159 -0.00197728 0)
(0.105909 -0.00210702 0)
(0.10669 -0.00223438 0)
(0.107501 -0.0023596 0)
(0.108339 -0.00248288 0)
(0.109202 -0.00260436 0)
(0.110087 -0.00272417 0)
(0.110994 -0.00284238 0)
(0.11192 -0.00295906 0)
(0.112864 -0.00307424 0)
(0.113825 -0.00318794 0)
(0.1148 -0.00330016 0)
(0.115788 -0.00341086 0)
(0.116787 -0.00352001 0)
(0.117797 -0.00362757 0)
(0.118817 -0.00373345 0)
(0.119844 -0.00383758 0)
(0.120878 -0.00393987 0)
(0.121917 -0.0040402 0)
(0.12296 -0.00413844 0)
(0.124006 -0.00423446 0)
(0.125054 -0.00432811 0)
(0.126103 -0.00441921 0)
(0.127152 -0.00450758 0)
(0.128199 -0.004593 0)
(0.129244 -0.00467527 0)
(0.130285 -0.00475412 0)
(0.131322 -0.0048293 0)
(0.132353 -0.00490049 0)
(0.133378 -0.00496739 0)
(0.134394 -0.00502962 0)
(0.135402 -0.0050868 0)
(0.136401 -0.0051385 0)
(0.137388 -0.00518423 0)
(0.138364 -0.00522347 0)
(0.139327 -0.00525562 0)
(0.140276 -0.00528003 0)
(0.14121 -0.00529597 0)
(0.142128 -0.00530262 0)
(0.14303 -0.00529906 0)
(0.143913 -0.00528428 0)
(0.144777 -0.00525711 0)
(0.145621 -0.00521625 0)
(0.146443 -0.00516023 0)
(0.147244 -0.00508736 0)
(0.148021 -0.00499576 0)
(0.148774 -0.00488327 0)
(0.149502 -0.00474744 0)
(0.150204 -0.00458546 0)
(0.15088 -0.00439417 0)
(0.15153 -0.00416993 0)
(0.152152 -0.00390865 0)
(0.152749 -0.00360566 0)
(0.153321 -0.00325573 0)
(0.153869 -0.00285301 0)
(0.154397 -0.00239103 0)
(0.154908 -0.00186273 0)
(0.155409 -0.00126059 0)
(0.155908 -0.000576772 0)
(0.156414 0.000196736 0)
(0.156941 0.00106582 0)
(0.157505 0.00203525 0)
(0.158126 0.00310738 0)
(0.158827 0.0042802 0)
(0.159634 0.00554562 0)
(0.160574 0.00688741 0)
(0.161674 0.0082793 0)
(0.162952 0.00968376 0)
(0.164417 0.0110526 0)
(0.16606 0.0123311 0)
(0.100011 -0.000243516 0)
(0.100149 -0.000487216 0)
(0.10037 -0.000708728 0)
(0.100666 -0.000915308 0)
(0.10103 -0.00111015 0)
(0.101457 -0.0012954 0)
(0.10194 -0.00147275 0)
(0.102475 -0.00164354 0)
(0.103057 -0.00180879 0)
(0.103684 -0.00196933 0)
(0.10435 -0.00212579 0)
(0.105053 -0.0022787 0)
(0.10579 -0.00242848 0)
(0.106558 -0.00257548 0)
(0.107355 -0.00271997 0)
(0.108179 -0.00286218 0)
(0.109028 -0.00300226 0)
(0.1099 -0.00314037 0)
(0.110792 -0.0032766 0)
(0.111703 -0.00341102 0)
(0.112632 -0.00354366 0)
(0.113576 -0.00367455 0)
(0.114535 -0.00380367 0)
(0.115507 -0.00393101 0)
(0.11649 -0.00405652 0)
(0.117483 -0.00418014 0)
(0.118485 -0.00430178 0)
(0.119494 -0.00442136 0)
(0.12051 -0.00453876 0)
(0.12153 -0.00465385 0)
(0.122555 -0.0047665 0)
(0.123582 -0.00487654 0)
(0.124611 -0.00498379 0)
(0.12564 -0.00508807 0)
(0.126669 -0.00518915 0)
(0.127696 -0.0052868 0)
(0.12872 -0.00538078 0)
(0.129741 -0.00547079 0)
(0.130757 -0.00555654 0)
(0.131767 -0.00563768 0)
(0.132771 -0.00571387 0)
(0.133766 -0.00578469 0)
(0.134753 -0.00584971 0)
(0.13573 -0.00590844 0)
(0.136697 -0.00596036 0)
(0.137651 -0.00600489 0)
(0.138594 -0.00604138 0)
(0.139522 -0.00606912 0)
(0.140437 -0.00608732 0)
(0.141335 -0.0060951 0)
(0.142218 -0.0060915 0)
(0.143083 -0.00607542 0)
(0.143931 -0.00604566 0)
(0.144759 -0.00600087 0)
(0.145568 -0.00593953 0)
(0.146356 -0.00585996 0)
(0.147124 -0.00576026 0)
(0.14787 -0.00563832 0)
(0.148594 -0.00549176 0)
(0.149296 -0.00531795 0)
(0.149977 -0.00511392 0)
(0.150636 -0.00487643 0)
(0.151274 -0.00460184 0)
(0.151892 -0.00428622 0)
(0.152494 -0.00392527 0)
(0.15308 -0.00351441 0)
(0.153656 -0.00304885 0)
(0.154226 -0.0025237 0)
(0.154796 -0.00193416 0)
(0.155375 -0.00127578 0)
(0.155973 -0.000544695 0)
(0.156601 0.000262271 0)
(0.157272 0.00114419 0)
(0.158001 0.0020981 0)
(0.158804 0.00311792 0)
(0.159698 0.00419299 0)
(0.160699 0.00530731 0)
(0.16182 0.00643921 0)
(0.163068 0.0075617 0)
(0.164444 0.00864395 0)
(0.165936 0.00965472 0)
(0.100007 -0.000273409 0)
(0.100142 -0.000550218 0)
(0.100358 -0.000802445 0)
(0.100645 -0.00103805 0)
(0.100999 -0.00126054 0)
(0.101416 -0.00147218 0)
(0.101888 -0.00167483 0)
(0.102411 -0.00186997 0)
(0.102982 -0.00205876 0)
(0.103595 -0.00224212 0)
(0.104248 -0.00242079 0)
(0.104937 -0.00259536 0)
(0.10566 -0.0027663 0)
(0.106414 -0.00293402 0)
(0.107196 -0.00309882 0)
(0.108005 -0.00326096 0)
(0.108838 -0.00342063 0)
(0.109694 -0.00357799 0)
(0.110569 -0.00373315 0)
(0.111464 -0.00388619 0)
(0.112375 -0.00403715 0)
(0.113302 -0.00418605 0)
(0.114243 -0.00433289 0)
(0.115196 -0.00447763 0)
(0.11616 -0.00462023 0)
(0.117134 -0.00476062 0)
(0.118117 -0.0048987 0)
(0.119106 -0.00503437 0)
(0.120102 -0.00516749 0)
(0.121102 -0.00529794 0)
(0.122105 -0.00542553 0)
(0.123112 -0.0055501 0)
(0.124119 -0.00567145 0)
(0.125127 -0.00578935 0)
(0.126133 -0.00590356 0)
(0.127138 -0.00601383 0)
(0.12814 -0.00611987 0)
(0.129138 -0.00622136 0)
(0.130131 -0.00631798 0)
(0.131119 -0.00640934 0)
(0.132099 -0.00649505 0)
(0.133072 -0.00657468 0)
(0.134035 -0.00664774 0)
(0.13499 -0.00671371 0)
(0.135933 -0.00677202 0)
(0.136866 -0.00682205 0)
(0.137786 -0.0068631 0)
(0.138693 -0.00689443 0)
(0.139586 -0.00691521 0)
(0.140464 -0.00692452 0)
(0.141327 -0.00692136 0)
(0.142173 -0.00690462 0)
(0.143003 -0.00687307 0)
(0.143816 -0.00682537 0)
(0.144611 -0.00676003 0)
(0.145387 -0.00667541 0)
(0.146145 -0.00656969 0)
(0.146885 -0.0064409 0)
(0.147605 -0.00628685 0)
(0.148308 -0.00610518 0)
(0.148993 -0.0058933 0)
(0.149661 -0.00564844 0)
(0.150314 -0.00536766 0)
(0.150954 -0.00504783 0)
(0.151583 -0.00468574 0)
(0.152204 -0.00427818 0)
(0.152822 -0.00382198 0)
(0.153442 -0.00331426 0)
(0.15407 -0.00275258 0)
(0.154713 -0.00213519 0)
(0.155379 -0.00146132 0)
(0.156079 -0.000731332 0)
(0.156822 5.34101e-05 0)
(0.157619 0.000887582 0)
(0.158481 0.00176215 0)
(0.159415 0.00266679 0)
(0.160432 0.00358803 0)
(0.161536 0.00450949 0)
(0.162729 0.0054125 0)
(0.164008 0.00627747 0)
(0.165363 0.00708627 0)
(0.100003 -0.00030424 0)
(0.100136 -0.000615374 0)
(0.100345 -0.000899698 0)
(0.100623 -0.00116571 0)
(0.100968 -0.00141723 0)
(0.101373 -0.00165665 0)
(0.101834 -0.00188594 0)
(0.102344 -0.00210675 0)
(0.102901 -0.00232036 0)
(0.103501 -0.00252779 0)
(0.104139 -0.00272986 0)
(0.104813 -0.00292724 0)
(0.105521 -0.00312047 0)
(0.106259 -0.00330998 0)
(0.107025 -0.00349614 0)
(0.107817 -0.00367923 0)
(0.108632 -0.00385946 0)
(0.10947 -0.00403702 0)
(0.110327 -0.00421202 0)
(0.111203 -0.00438456 0)
(0.112095 -0.00455469 0)
(0.113003 -0.00472243 0)
(0.113923 -0.00488777 0)
(0.114856 -0.00505067 0)
(0.1158 -0.00521109 0)
(0.116753 -0.00536894 0)
(0.117714 -0.00552411 0)
(0.118681 -0.00567649 0)
(0.119655 -0.00582594 0)
(0.120632 -0.00597229 0)
(0.121613 -0.00611536 0)
(0.122596 -0.00625495 0)
(0.12358 -0.00639085 0)
(0.124564 -0.00652279 0)
(0.125547 -0.00665053 0)
(0.126527 -0.00677377 0)
(0.127505 -0.0068922 0)
(0.128478 -0.00700548 0)
(0.129447 -0.00711324 0)
(0.130409 -0.00721508 0)
(0.131365 -0.00731057 0)
(0.132312 -0.00739923 0)
(0.133251 -0.00748056 0)
(0.134181 -0.007554 0)
(0.1351 -0.00761894 0)
(0.136009 -0.00767474 0)
(0.136905 -0.00772068 0)
(0.137789 -0.00775598 0)
(0.13866 -0.00777979 0)
(0.139517 -0.00779119 0)
(0.140359 -0.00778918 0)
(0.141186 -0.00777265 0)
(0.141999 -0.00774041 0)
(0.142795 -0.00769117 0)
(0.143575 -0.00762352 0)
(0.14434 -0.00753592 0)
(0.145088 -0.00742673 0)
(0.14582 -0.00729417 0)
(0.146537 -0.00713636 0)
(0.14724 -0.00695129 0)
(0.147929 -0.00673684 0)
(0.148606 -0.00649084 0)
(0.149272 -0.00621105 0)
(0.14993 -0.00589526 0)
(0.150583 -0.00554132 0)
(0.151233 -0.00514726 0)
(0.151886 -0.00471141 0)
(0.152545 -0.00423251 0)
(0.153217 -0.00370991 0)
(0.153906 -0.0031438 0)
(0.15462 -0.00253534 0)
(0.155365 -0.00188688 0)
(0.15615 -0.00120207 0)
(0.156981 -0.000485549 0)
(0.157865 0.00025656 0)
(0.158808 0.00101413 0)
(0.159811 0.00177489 0)
(0.160876 0.00252712 0)
(0.162003 0.0032583 0)
(0.163187 0.00395613 0)
(0.16442 0.00461009 0)
(0.0999992 -0.000336034 0)
(0.100129 -0.000682672 0)
(0.100332 -0.00100045 0)
(0.100602 -0.00129822 0)
(0.100936 -0.00158015 0)
(0.10133 -0.0018487 0)
(0.101777 -0.00210598 0)
(0.102275 -0.00235376 0)
(0.102817 -0.00259346 0)
(0.103401 -0.00282619 0)
(0.104024 -0.00305286 0)
(0.104682 -0.00327421 0)
(0.105372 -0.00349084 0)
(0.106093 -0.00370324 0)
(0.106841 -0.0039118 0)
(0.107614 -0.00411684 0)
(0.108411 -0.00431861 0)
(0.109229 -0.0045173 0)
(0.110066 -0.00471306 0)
(0.110921 -0.00490597 0)
(0.111793 -0.00509611 0)
(0.112679 -0.00528348 0)
(0.113578 -0.00546809 0)
(0.114488 -0.00564989 0)
(0.115409 -0.00582882 0)
(0.116339 -0.00600479 0)
(0.117276 -0.0061777 0)
(0.11822 -0.00634739 0)
(0.119169 -0.00651372 0)
(0.120122 -0.0066765 0)
(0.121078 -0.00683554 0)
(0.122036 -0.00699062 0)
(0.122994 -0.00714148 0)
(0.123952 -0.00728788 0)
(0.124909 -0.0074295 0)
(0.125864 -0.00756606 0)
(0.126815 -0.00769719 0)
(0.127762 -0.00782255 0)
(0.128704 -0.00794173 0)
(0.12964 -0.0080543 0)
(0.130569 -0.00815981 0)
(0.13149 -0.00825776 0)
(0.132403 -0.00834762 0)
(0.133306 -0.0084288 0)
(0.1342 -0.00850069 0)
(0.135083 -0.00856262 0)
(0.135955 -0.00861387 0)
(0.136814 -0.00865364 0)
(0.137662 -0.00868111 0)
(0.138496 -0.00869536 0)
(0.139317 -0.00869542 0)
(0.140125 -0.00868024 0)
(0.140918 -0.00864871 0)
(0.141698 -0.00859961 0)
(0.142464 -0.00853167 0)
(0.143215 -0.00844355 0)
(0.143953 -0.0083338 0)
(0.144679 -0.00820093 0)
(0.145391 -0.00804341 0)
(0.146093 -0.00785964 0)
(0.146784 -0.00764803 0)
(0.147467 -0.00740702 0)
(0.148144 -0.00713509 0)
(0.148816 -0.00683089 0)
(0.149487 -0.00649321 0)
(0.15016 -0.00612117 0)
(0.150838 -0.00571423 0)
(0.151525 -0.00527238 0)
(0.152226 -0.00479619 0)
(0.152945 -0.004287 0)
(0.153687 -0.00374701 0)
(0.154457 -0.00317936 0)
(0.155259 -0.00258825 0)
(0.156098 -0.00197889 0)
(0.156978 -0.00135735 0)
(0.157902 -0.00073005 0)
(0.158871 -0.000103676 0)
(0.159885 0.000512771 0)
(0.160942 0.00111005 0)
(0.162036 0.00167879 0)
(0.163161 0.00221293 0)
(0.0999947 -0.000368803 0)
(0.100123 -0.000752087 0)
(0.100319 -0.00110462 0)
(0.10058 -0.00143549 0)
(0.100903 -0.00174915 0)
(0.101285 -0.00204817 0)
(0.101719 -0.00233475 0)
(0.102202 -0.0026108 0)
(0.102729 -0.00287784 0)
(0.103297 -0.00313709 0)
(0.103903 -0.00338955 0)
(0.104543 -0.00363601 0)
(0.105215 -0.00387714 0)
(0.105917 -0.00411349 0)
(0.106645 -0.00434548 0)
(0.107398 -0.00457347 0)
(0.108174 -0.00479774 0)
(0.108971 -0.00501848 0)
(0.109786 -0.00523588 0)
(0.110619 -0.00545001 0)
(0.111468 -0.00566097 0)
(0.11233 -0.00586876 0)
(0.113206 -0.00607337 0)
(0.114092 -0.00627478 0)
(0.114988 -0.00647289 0)
(0.115893 -0.00666763 0)
(0.116805 -0.00685885 0)
(0.117723 -0.00704642 0)
(0.118646 -0.00723016 0)
(0.119572 -0.00740987 0)
(0.120501 -0.00758534 0)
(0.121432 -0.00775633 0)
(0.122363 -0.00792257 0)
(0.123293 -0.00808377 0)
(0.124222 -0.00823963 0)
(0.125148 -0.00838981 0)
(0.126071 -0.00853395 0)
(0.12699 -0.00867166 0)
(0.127904 -0.00880253 0)
(0.128811 -0.0089261 0)
(0.129712 -0.0090419 0)
(0.130605 -0.00914942 0)
(0.13149 -0.00924811 0)
(0.132366 -0.00933739 0)
(0.133233 -0.00941662 0)
(0.134089 -0.00948514 0)
(0.134935 -0.00954224 0)
(0.13577 -0.00958714 0)
(0.136593 -0.00961906 0)
(0.137404 -0.00963711 0)
(0.138203 -0.0096404 0)
(0.13899 -0.00962796 0)
(0.139764 -0.00959877 0)
(0.140527 -0.00955178 0)
(0.141277 -0.00948589 0)
(0.142015 -0.00939995 0)
(0.142742 -0.00929281 0)
(0.143459 -0.00916328 0)
(0.144166 -0.00901019 0)
(0.144865 -0.00883241 0)
(0.145556 -0.00862886 0)
(0.146243 -0.00839855 0)
(0.146925 -0.00814065 0)
(0.147607 -0.00785449 0)
(0.148289 -0.00753969 0)
(0.148975 -0.00719616 0)
(0.149669 -0.00682423 0)
(0.150372 -0.00642466 0)
(0.151089 -0.00599877 0)
(0.151822 -0.00554847 0)
(0.152576 -0.00507634 0)
(0.153352 -0.00458561 0)
(0.154155 -0.00408024 0)
(0.154985 -0.00356477 0)
(0.155846 -0.00304438 0)
(0.156737 -0.00252465 0)
(0.157658 -0.00201136 0)
(0.158611 -0.00151014 0)
(0.159591 -0.001026 0)
(0.160598 -0.000562749 0)
(0.161624 -0.000124674 0)
(0.0999899 -0.00040254 0)
(0.100116 -0.000823574 0)
(0.100307 -0.00121212 0)
(0.100557 -0.00157737 0)
(0.100869 -0.00192405 0)
(0.101238 -0.00225483 0)
(0.101659 -0.00257201 0)
(0.102126 -0.00287758 0)
(0.102637 -0.00317319 0)
(0.103188 -0.00346015 0)
(0.103775 -0.00373953 0)
(0.104397 -0.00401222 0)
(0.105049 -0.00427894 0)
(0.10573 -0.00454028 0)
(0.106437 -0.0047967 0)
(0.107169 -0.00504861 0)
(0.107922 -0.00529629 0)
(0.108696 -0.00553999 0)
(0.109488 -0.00577986 0)
(0.110297 -0.00601604 0)
(0.111121 -0.00624859 0)
(0.111958 -0.00647753 0)
(0.112808 -0.00670286 0)
(0.113668 -0.00692454 0)
(0.114537 -0.00714247 0)
(0.115415 -0.00735656 0)
(0.1163 -0.00756666 0)
(0.11719 -0.00777263 0)
(0.118084 -0.00797426 0)
(0.118982 -0.00817136 0)
(0.119882 -0.00836368 0)
(0.120784 -0.00855097 0)
(0.121685 -0.00873294 0)
(0.122586 -0.0089093 0)