/*--------------------------------*- C++ -*----------------------------------*\
| =========                 |                                                 |
| \\      /  F ield         | OpenFOAM: The Open Source CFD Toolbox           |
|  \\    /   O peration     | Version:  2106                                  |
|   \\  /    A nd           | Website:  www.openfoam.com                      |
|    \\/     M anipulation  |                                                 |
\*---------------------------------------------------------------------------*/
FoamFile
{
    version     2.0;
    format      ascii;
    arch        "LSB;label=32;scalar=64";
    class       surfaceScalarField;
    location    "8.4";
    object      phi;
}
// * * * * * * * * * * * * * * * * * * * * * * * * * * * * * * * * * * * * * //

dimensions      [1 0 -1 0 0 0 0];

oriented        oriented;

internalField   nonuniform List<scalar> 
23692
(
9.31874e-05
-1.08003e-07
9.3383e-05
-1.956e-07
9.36568e-05
-2.73696e-07
9.39993e-05
-3.42522e-07
9.44035e-05
-4.04202e-07
9.48636e-05
-4.60032e-07
9.53745e-05
-5.10867e-07
9.59319e-05
-5.57395e-07
9.65321e-05
-6.00145e-07
9.71717e-05
-6.3954e-07
9.78477e-05
-6.75929e-07
9.85573e-05
-7.09597e-07
9.92982e-05
-7.40786e-07
0.000100068
-7.69699e-07
0.000100865
-7.96509e-07
0.000101686
-8.2136e-07
0.00010253
-8.44384e-07
0.000103396
-8.65689e-07
0.000104282
-8.85368e-07
0.000105185
-9.03508e-07
0.000106105
-9.20179e-07
0.000107041
-9.35446e-07
0.00010799
-9.49365e-07
0.000108953
-9.61982e-07
0.000109926
-9.73345e-07
0.00011091
-9.83489e-07
0.000111902
-9.92451e-07
0.000112902
-1.00025e-06
0.000113909
-1.00693e-06
0.000114922
-1.0125e-06
0.000115939
-1.01699e-06
0.00011696
-1.0204e-06
0.000117982
-1.02275e-06
0.000119007
-1.02406e-06
0.000120031
-1.02433e-06
0.000121055
-1.02357e-06
0.000122076
-1.02178e-06
0.000123095
-1.01895e-06
0.000124111
-1.01508e-06
0.000125121
-1.01017e-06
0.000126125
-1.00421e-06
0.000127122
-9.97168e-07
0.000128111
-9.89034e-07
0.000129091
-9.79781e-07
0.000130061
-9.69375e-07
0.000131018
-9.57778e-07
0.000131963
-9.44943e-07
0.000132894
-9.30813e-07
0.00013381
-9.15322e-07
0.000134708
-8.98392e-07
0.000135588
-8.79927e-07
0.000136448
-8.59818e-07
0.000137286
-8.37934e-07
0.0001381
-8.1412e-07
0.000138888
-7.88191e-07
0.000139648
-7.59925e-07
0.000140377
-7.29061e-07
0.000141073
-6.9528e-07
0.000141731
-6.58197e-07
0.000142348
-6.17345e-07
0.00014292
-5.72148e-07
0.000143442
-5.21895e-07
0.000143908
-4.65699e-07
0.00014431
-4.0244e-07
0.000144641
-3.30689e-07
0.00014489
-2.48601e-07
0.000145043
-1.53761e-07
0.000145086
-4.29664e-08
0.000144998
8.81523e-08
0.000144752
2.45707e-07
0.000144314
4.38387e-07
0.000143635
6.7884e-07
0.000142649
9.85997e-07
0.00014126
1.38903e-06
0.000139326
1.93425e-06
0.000136628
2.6974e-06
0.000132823
3.80536e-06
0.000127346
5.47702e-06
0.000119228
8.11845e-06
0.000106658
1.25696e-05
2.12629e-05
8.53951e-05
9.97117e-05
-2.20702e-07
9.99198e-05
-4.03719e-07
0.000100212
-5.65624e-07
0.000100577
-7.08059e-07
0.000101009
-8.35757e-07
0.0001015
-9.51327e-07
0.000102046
-1.05655e-06
0.000102641
-1.15284e-06
0.000103283
-1.24131e-06
0.000103966
-1.32283e-06
0.000104688
-1.39813e-06
0.000105446
-1.4678e-06
0.000106238
-1.53232e-06
0.000107061
-1.59214e-06
0.000107912
-1.6476e-06
0.000108789
-1.69901e-06
0.000109692
-1.74663e-06
0.000110617
-1.79069e-06
0.000111563
-1.83139e-06
0.000112528
-1.8689e-06
0.000113512
-1.90336e-06
0.000114511
-1.93492e-06
0.000115526
-1.96369e-06
0.000116554
-1.98977e-06
0.000117594
-2.01324e-06
0.000118644
-2.03419e-06
0.000119705
-2.05269e-06
0.000120773
-2.06881e-06
0.000121849
-2.08258e-06
0.000122931
-2.09406e-06
0.000124017
-2.10329e-06
0.000125107
-2.11031e-06
0.0001262
-2.11513e-06
0.000127293
-2.11779e-06
0.000128387
-2.1183e-06
0.000129481
-2.11667e-06
0.000130572
-2.11291e-06
0.00013166
-2.107e-06
0.000132744
-2.09896e-06
0.000133823
-2.08874e-06
0.000134895
-2.07635e-06
0.000135959
-2.06173e-06
0.000137015
-2.04485e-06
0.000138061
-2.02565e-06
0.000139096
-2.00408e-06
0.000140118
-1.98004e-06
0.000141127
-1.95345e-06
0.00014212
-1.92418e-06
0.000143097
-1.89211e-06
0.000144056
-1.85706e-06
0.000144995
-1.81886e-06
0.000145912
-1.77727e-06
0.000146806
-1.73202e-06
0.000147675
-1.68281e-06
0.000148516
-1.62925e-06
0.000149327
-1.57089e-06
0.000150105
-1.50721e-06
0.000150848
-1.43756e-06
0.000151551
-1.36116e-06
0.00015221
-1.27706e-06
0.000152822
-1.18412e-06
0.000153381
-1.08091e-06
0.000153881
-9.65653e-07
0.000154315
-8.36125e-07
0.000154674
-6.89499e-07
0.000154947
-5.2215e-07
0.000155123
-3.2936e-07
0.000155185
-1.04922e-07
0.000155113
1.59482e-07
0.000154884
4.75307e-07
0.000154464
8.58569e-07
0.00015381
1.33204e-06
0.000152868
1.92879e-06
0.000151559
2.69787e-06
0.00014978
3.71339e-06
0.000147388
5.08889e-06
0.000144195
6.99841e-06
0.000139967
9.705e-06
0.000134485
1.36001e-05
0.000127882
1.91725e-05
2.62746e-05
0.000122871
0.000106692
-3.37424e-07
0.000106912
-6.24088e-07
0.000107222
-8.75572e-07
0.000107611
-1.09694e-06
0.000108071
-1.29534e-06
0.000108594
-1.47484e-06
0.000109176
-1.63823e-06
0.000109811
-1.78775e-06
0.000110495
-1.9251e-06
0.000111224
-2.05165e-06
0.000111994
-2.16852e-06
0.000112803
-2.27664e-06
0.000113647
-2.37678e-06
0.000114525
-2.46959e-06
0.000115433
-2.55563e-06
0.00011637
-2.63537e-06
0.000117332
-2.70923e-06
0.000118319
-2.77756e-06
0.000119329
-2.84066e-06
0.000120359
-2.89881e-06
0.000121408
-2.95223e-06
0.000122474
-3.00113e-06
0.000123556
-3.04569e-06
0.000124652
-3.08607e-06
0.000125762
-3.12241e-06
0.000126882
-3.15483e-06
0.000128013
-3.18344e-06
0.000129153
-3.20833e-06
0.0001303
-3.22959e-06
0.000131453
-3.2473e-06
0.000132612
-3.2615e-06
0.000133774
-3.27227e-06
0.000134938
-3.27963e-06
0.000136104
-3.28362e-06
0.00013727
-3.28428e-06
0.000138435
-3.28162e-06
0.000139598
-3.27563e-06
0.000140757
-3.26633e-06
0.000141912
-3.2537e-06
0.000143061
-3.23771e-06
0.000144203
-3.21833e-06
0.000145337
-3.19551e-06
0.000146462
-3.16919e-06
0.000147575
-3.13927e-06
0.000148677
-3.10567e-06
0.000149765
-3.06825e-06
0.000150839
-3.02688e-06
0.000151896
-2.98137e-06
0.000152935
-2.93153e-06
0.000153955
-2.8771e-06
0.000154954
-2.8178e-06
0.00015593
-2.75327e-06
0.000156882
-2.68313e-06
0.000157806
-2.60689e-06
0.0001587
-2.52398e-06
0.000159563
-2.43373e-06
0.000160391
-2.33533e-06
0.000161182
-2.22782e-06
0.000161931
-2.11005e-06
0.000162634
-1.98059e-06
0.000163288
-1.83776e-06
0.000163886
-1.67944e-06
0.000164424
-1.50304e-06
0.000164893
-1.30531e-06
0.000165286
-1.08219e-06
0.000165592
-8.28477e-07
0.0001658
-5.37519e-07
0.000165896
-2.00657e-07
0.000165862
1.93453e-07
0.000165677
6.60013e-07
0.000165316
1.21973e-06
0.000164747
1.90107e-06
0.000163932
2.74354e-06
0.000162827
3.80256e-06
0.000161385
5.15614e-06
0.00015956
6.91324e-06
0.000157337
9.22166e-06
0.000154774
1.22676e-05
0.00015213
1.6244e-05
0.000150119
2.11839e-05
2.63638e-05
0.00015003
0.00011416
-4.57868e-07
0.000114392
-8.56138e-07
0.00011472
-1.20334e-06
0.000115132
-1.50933e-06
0.000115621
-1.78342e-06
0.000116177
-2.03134e-06
0.000116796
-2.25696e-06
0.000117472
-2.46337e-06
0.000118199
-2.65295e-06
0.000118975
-2.8276e-06
0.000119796
-2.98887e-06
0.000120657
-3.13803e-06
0.000121557
-3.27616e-06
0.000122491
-3.40416e-06
0.000123459
-3.52281e-06
0.000124456
-3.63275e-06
0.000125482
-3.73455e-06
0.000126533
-3.82872e-06
0.000127608
-3.91565e-06
0.000128705
-3.99574e-06
0.000129822
-4.06929e-06
0.000130958
-4.1366e-06
0.00013211
-4.19791e-06
0.000133278
-4.25345e-06
0.000134459
-4.30339e-06
0.000135652
-4.34793e-06
0.000136856
-4.38719e-06
0.000138069
-4.42132e-06
0.00013929
-4.45044e-06
0.000140517
-4.47463e-06
0.00014175
-4.49399e-06
0.000142986
-4.5086e-06
0.000144225
-4.51851e-06
0.000145465
-4.52377e-06
0.000146706
-4.52442e-06
0.000147945
-4.52048e-06
0.000149181
-4.51196e-06
0.000150414
-4.49886e-06
0.000151641
-4.48117e-06
0.000152862
-4.45884e-06
0.000154076
-4.43184e-06
0.000155281
-4.4001e-06
0.000156475
-4.36353e-06
0.000157658
-4.32202e-06
0.000158828
-4.27543e-06
0.000159983
-4.22361e-06
0.000161123
-4.16635e-06
0.000162245
-4.10343e-06
0.000163348
-4.03456e-06
0.00016443
-3.95941e-06
0.00016549
-3.8776e-06
0.000166525
-3.78867e-06
0.000167534
-3.69208e-06
0.000168515
-3.5872e-06
0.000169464
-3.47328e-06
0.00017038
-3.34942e-06
0.000171259
-3.21456e-06
0.000172099
-3.06746e-06
0.000172895
-2.90658e-06
0.000173645
-2.73012e-06
0.000174343
-2.53587e-06
0.000174985
-2.32114e-06
0.000175564
-2.08264e-06
0.000176075
-1.81631e-06
0.00017651
-1.51708e-06
0.00017686
-1.17862e-06
0.000177116
-7.92896e-07
0.000177265
-3.49712e-07
0.000177294
1.6396e-07
0.000177189
7.64956e-07
0.000176934
1.47533e-06
0.00017651
2.32413e-06
0.000175905
3.34945e-06
0.000175106
4.60104e-06
0.000174119
6.14293e-06
0.000172978
8.0547e-06
0.000171771
1.0428e-05
0.000170689
1.33498e-05
0.000170079
1.68542e-05
0.000170466
2.07966e-05
2.45865e-05
0.000172244
0.000122151
-5.819e-07
0.000122395
-1.0994e-06
0.00012274
-1.54868e-06
0.000123176
-1.9452e-06
0.000123693
-2.30032e-06
0.000124283
-2.62141e-06
0.000124939
-2.91356e-06
0.000125657
-3.18077e-06
0.00012643
-3.42614e-06
0.000127255
-3.65213e-06
0.000128127
-3.86076e-06
0.000129042
-4.0537e-06
0.000129999
-4.23232e-06
0.000130992
-4.39782e-06
0.000132021
-4.55117e-06
0.000133082
-4.69325e-06
0.000134172
-4.82477e-06
0.00013529
-4.94639e-06
0.000136433
-5.05863e-06
0.000137599
-5.162e-06
0.000138787
-5.25689e-06
0.000139994
-5.34369e-06
0.000141219
-5.42272e-06
0.00014246
-5.49425e-06
0.000143715
-5.55854e-06
0.000144983
-5.61581e-06
0.000146262
-5.66625e-06
0.000147551
-5.71004e-06
0.000148848
-5.74733e-06
0.000150152
-5.77824e-06
0.000151461
-5.8029e-06
0.000152774
-5.82139e-06
0.000154089
-5.83379e-06
0.000155406
-5.84018e-06
0.000156722
-5.84059e-06
0.000158037
-5.83506e-06
0.000159348
-5.82361e-06
0.000160656
-5.80623e-06
0.000161958
-5.78291e-06
0.000163252
-5.75361e-06
0.000164539
-5.71827e-06
0.000165816
-5.6768e-06
0.000167081
-5.62911e-06
0.000168334
-5.57504e-06
0.000169573
-5.51445e-06
0.000170797
-5.44711e-06
0.000172004
-5.3728e-06
0.000173191
-5.29121e-06
0.000174359
-5.202e-06
0.000175504
-5.10477e-06
0.000176626
-4.99903e-06
0.000177721
-4.88423e-06
0.000178789
-4.7597e-06
0.000179827
-4.62466e-06
0.000180831
-4.47819e-06
0.000181801
-4.31921e-06
0.000182733
-4.14645e-06
0.000183624
-3.95837e-06
0.000184471
-3.75319e-06
0.000185269
-3.52873e-06
0.000186016
-3.2824e-06
0.000186706
-3.01109e-06
0.000187334
-2.71099e-06
0.000187895
-2.3775e-06
0.000188383
-2.00498e-06
0.000188791
-1.58645e-06
0.000189112
-1.11334e-06
0.000189337
-5.74967e-07
0.000189459
4.18133e-08
0.00018947
7.53395e-07
0.000189366
1.57983e-06
0.000189144
2.54652e-06
0.000188809
3.6844e-06
0.000188379
5.03043e-06
0.000187895
6.62704e-06
0.000187431
8.51912e-06
0.000187112
1.07461e-05
0.000187138
1.33241e-05
0.000187782
1.62106e-05
0.000189339
1.92391e-05
2.20245e-05
0.000191901
0.000130702
-7.09514e-07
0.000130956
-1.35351e-06
0.000131318
-1.91133e-06
0.000131778
-2.40447e-06
0.000132324
-2.84618e-06
0.000132948
-3.24545e-06
0.000133643
-3.60867e-06
0.000134403
-3.94079e-06
0.000135223
-4.2457e-06
0.000136097
-4.52646e-06
0.000137022
-4.78559e-06
0.000137993
-5.02516e-06
0.000139008
-5.2469e-06
0.000140063
-5.45229e-06
0.000141154
-5.64256e-06
0.00014228
-5.81878e-06
0.000143437
-5.98186e-06
0.000144623
-6.13259e-06
0.000145836
-6.27166e-06
0.000147074
-6.39966e-06
0.000148335
-6.51713e-06
0.000149615
-6.62451e-06
0.000150915
-6.7222e-06
0.000152232
-6.81057e-06
0.000153563
-6.88993e-06
0.000154908
-6.96054e-06
0.000156264
-7.02266e-06
0.000157631
-7.07649e-06
0.000159006
-7.12223e-06
0.000160388
-7.16004e-06
0.000161775
-7.19006e-06
0.000163166
-7.21241e-06
0.00016456
-7.2272e-06
0.000165954
-7.2345e-06
0.000167348
-7.23437e-06
0.00016874
-7.22687e-06
0.000170129
-7.21201e-06
0.000171512
-7.18979e-06
0.00017289
-7.1602e-06
0.000174259
-7.12319e-06
0.00017562
-7.0787e-06
0.00017697
-7.02662e-06
0.000178307
-6.96684e-06
0.000179632
-6.8992e-06
0.000180941
-6.8235e-06
0.000182233
-6.73949e-06
0.000183507
-6.6469e-06
0.000184762
-6.54537e-06
0.000185994
-6.43452e-06
0.000187203
-6.31384e-06
0.000188387
-6.1828e-06
0.000189544
-6.04073e-06
0.000190671
-5.88687e-06
0.000191767
-5.72031e-06
0.000192828
-5.54e-06
0.000193854
-5.34471e-06
0.000194841
-5.13298e-06
0.000195785
-4.9031e-06
0.000196685
-4.65306e-06
0.000197537
-4.38046e-06
0.000198337
-4.08248e-06
0.000199082
-3.75575e-06
0.000199767
-3.39623e-06
0.000200389
-2.99913e-06
0.000200942
-2.55867e-06
0.000201424
-2.0679e-06
0.000201829
-1.5185e-06
0.000202154
-9.00462e-07
0.000202398
-2.01856e-07
0.00020256
5.91321e-07
0.000202645
1.49506e-06
0.000202663
2.52829e-06
0.000202635
3.71214e-06
0.000202597
5.06898e-06
0.000202603
6.62029e-06
0.00020274
8.38255e-06
0.000203126
1.03599e-05
0.000203918
1.25319e-05
0.000205295
1.4834e-05
0.000207402
1.71317e-05
1.91971e-05
0.00021023
0.000139851
-8.40817e-07
0.000140115
-1.61821e-06
0.000140495
-2.29106e-06
0.000140978
-2.88697e-06
0.000141553
-3.42101e-06
0.000142211
-3.9037e-06
0.000142945
-4.34273e-06
0.000143748
-4.74409e-06
0.000144615
-5.11246e-06
0.00014554
-5.45158e-06
0.000146519
-5.76448e-06
0.000147548
-6.05368e-06
0.000148622
-6.32129e-06
0.000149739
-6.56907e-06
0.000150895
-6.79853e-06
0.000152088
-7.01097e-06
0.000153313
-7.20749e-06
0.00015457
-7.38906e-06
0.000155855
-7.5565e-06
0.000157166
-7.71054e-06
0.000158501
-7.8518e-06
0.000159857
-7.98086e-06
0.000161233
-8.09819e-06
0.000162627
-8.20422e-06
0.000164037
-8.29934e-06
0.00016546
-8.38387e-06
0.000166896
-8.45812e-06
0.000168342
-8.52234e-06
0.000169796
-8.57676e-06
0.000171258
-8.62159e-06
0.000172725
-8.65699e-06
0.000174196
-8.68312e-06
0.000175669
-8.70011e-06
0.000177143
-8.70804e-06
0.000178615
-8.70701e-06
0.000180086
-8.69706e-06
0.000181552
-8.67823e-06
0.000183013
-8.65053e-06
0.000184467
-8.61395e-06
0.000185912
-8.56843e-06
0.000187347
-8.51391e-06
0.000188771
-8.45027e-06
0.000190182
-8.37739e-06
0.000191578
-8.29509e-06
0.000192957
-8.20313e-06
0.000194319
-8.10126e-06
0.000195662
-7.98915e-06
0.000196983
-7.86643e-06
0.000198281
-7.73262e-06
0.000199554
-7.58721e-06
0.000200801
-7.42958e-06
0.000202019
-7.25899e-06
0.000203207
-7.0746e-06
0.000204362
-6.87542e-06
0.000205483
-6.6603e-06
0.000206566
-6.42792e-06
0.00020761
-6.1767e-06
0.000208611
-5.90483e-06
0.000209569
-5.61021e-06
0.000210478
-5.29034e-06
0.000211338
-4.94234e-06
0.000212145
-4.56283e-06
0.000212897
-4.14784e-06
0.000213591
-3.69274e-06
0.000214224
-3.19211e-06
0.000214796
-2.63965e-06
0.000215305
-2.02804e-06
0.000215754
-1.34886e-06
0.000216144
-5.92535e-07
0.000216484
2.51596e-07
0.000216785
1.1945e-06
0.000217065
2.24763e-06
0.000217355
3.42243e-06
0.000217695
4.72853e-06
0.000218144
6.17147e-06
0.000218777
7.74935e-06
0.000219689
9.44793e-06
0.000220987
1.12341e-05
0.000222773
1.30478e-05
0.00022511
1.4795e-05
1.63477e-05
0.000227959
0.00014964
-9.75974e-07
0.000149916
-1.89332e-06
0.000150312
-2.68771e-06
0.000150818
-3.39256e-06
0.000151422
-4.02476e-06
0.000152114
-4.59624e-06
0.000152888
-5.116e-06
0.000153735
-5.59108e-06
0.000154649
-6.02702e-06
0.000155626
-6.42824e-06
0.00015666
-6.79832e-06
0.000157747
-7.14027e-06
0.000158882
-7.45657e-06
0.000160062
-7.74934e-06
0.000161284
-8.02036e-06
0.000162545
-8.27116e-06
0.00016384
-8.50307e-06
0.000165169
-8.71723e-06
0.000166527
-8.91461e-06
0.000167913
-9.09609e-06
0.000169323
-9.26241e-06
0.000170757
-9.41423e-06
0.000172211
-9.55214e-06
0.000173683
-9.67664e-06
0.000175172
-9.78819e-06
0.000176676
-9.88719e-06
0.000178192
-9.97398e-06
0.000179719
-1.00489e-05
0.000181254
-1.01122e-05
0.000182797
-1.01641e-05
0.000184345
-1.02048e-05
0.000185896
-1.02346e-05
0.00018745
-1.02535e-05
0.000189004
-1.02617e-05
0.000190556
-1.02593e-05
0.000192106
-1.02464e-05
0.00019365
-1.0223e-05
0.000195189
-1.01891e-05
0.00019672
-1.01447e-05
0.000198242
-1.00898e-05
0.000199752
-1.00243e-05
0.00020125
-9.94813e-06
0.000202734
-9.86108e-06
0.000204202
-9.76299e-06
0.000205652
-9.65363e-06
0.000207084
-9.5327e-06
0.000208495
-9.39986e-06
0.000209883
-9.2547e-06
0.000211247
-9.09675e-06
0.000212585
-8.92542e-06
0.000213896
-8.74006e-06
0.000215177
-8.5399e-06
0.000216426
-8.32406e-06
0.000217643
-8.0915e-06
0.000218823
-7.84103e-06
0.000219967
-7.57129e-06
0.000221071
-7.28071e-06
0.000222133
-6.96745e-06
0.000223153
-6.62942e-06
0.000224127
-6.26424e-06
0.000225053
-5.86913e-06
0.000225931
-5.44094e-06
0.00022676
-4.97607e-06
0.000227537
-4.47041e-06
0.000228265
-3.91933e-06
0.000228943
-3.31766e-06
0.000229574
-2.65966e-06
0.000230164
-1.93909e-06
0.000230721
-1.14932e-06
0.000231256
-2.83445e-07
0.000231786
6.64928e-07
0.000232333
1.70036e-06
0.000232929
2.82628e-06
0.000233615
4.04313e-06
0.000234439
5.34656e-06
0.000235464
6.72528e-06
0.000236753
8.15859e-06
0.000238373
9.61375e-06
0.000240377
1.10439e-05
0.000242784
1.23881e-05
1.3576e-05
0.000245555
0.000160116
-1.11519e-06
0.000160401
-2.17874e-06
0.000160815
-3.10113e-06
0.000161343
-3.92106e-06
0.000161976
-4.6573e-06
0.000162703
-5.32304e-06
0.000163515
-5.92857e-06
0.000164406
-6.482e-06
0.000165369
-6.98973e-06
0.000166398
-7.4569e-06
0.000167487
-7.8877e-06
0.000168633
-8.28561e-06
0.00016983
-8.65355e-06
0.000171074
-8.99397e-06
0.000172363
-9.30898e-06
0.000173692
-9.60035e-06
0.000175059
-9.86964e-06
0.00017646
-1.01182e-05
0.000177893
-1.03471e-05
0.000179354
-1.05574e-05
0.000180842
-1.075e-05
0.000182354
-1.09257e-05
0.000183887
-1.10851e-05
0.000185439
-1.12289e-05
0.000187009
-1.13575e-05
0.000188593
-1.14715e-05
0.000190191
-1.15712e-05
0.000191799
-1.1657e-05
0.000193416
-1.17293e-05
0.00019504
-1.17883e-05
0.00019667
-1.18343e-05
0.000198303
-1.18674e-05
0.000199938
-1.1888e-05
0.000201572
-1.18961e-05
0.000203205
-1.18918e-05
0.000204834
-1.18753e-05
0.000206457
-1.18466e-05
0.000208074
-1.18057e-05
0.000209682
-1.17527e-05
0.00021128
-1.16875e-05
0.000212866
-1.161e-05
0.000214438
-1.15202e-05
0.000215995
-1.14179e-05
0.000217535
-1.13029e-05
0.000219056
-1.1175e-05
0.000220558
-1.10338e-05
0.000222037
-1.08791e-05
0.000223493
-1.07104e-05
0.000224923
-1.05272e-05
0.000226327
-1.0329e-05
0.000227702
-1.0115e-05
0.000229046
-9.88448e-06
0.000230359
-9.6366e-06
0.000231638
-9.37032e-06
0.000232881
-9.08447e-06
0.000234088
-8.77773e-06
0.000235256
-8.4486e-06
0.000236384
-8.09536e-06
0.00023747
-7.71609e-06
0.000238515
-7.30861e-06
0.000239516
-6.87049e-06
0.000240474
-6.39903e-06
0.000241389
-5.89123e-06
0.000242263
-5.3438e-06
0.000243097
-4.75322e-06
0.000243895
-4.11574e-06
0.000244663
-3.42747e-06
0.000245408
-2.68458e-06
0.000246142
-1.8834e-06
0.000246879
-1.02077e-06
0.000247638
-9.41298e-08
0.000248442
8.96854e-07
0.000249319
1.94934e-06
0.000250304
3.05828e-06
0.000251436
4.21447e-06
0.000252757
5.40355e-06
0.000254311
6.60511e-06
0.000256133
7.7921e-06
0.000258245
8.93113e-06
0.000260649
9.98422e-06
1.0913e-05
0.000263312
0.000171324
-1.25868e-06
0.00017162
-2.47443e-06
0.00017205
-3.53121e-06
0.000172601
-4.4723e-06
0.000173263
-5.31844e-06
0.000174024
-6.08396e-06
0.000174875
-6.78037e-06
0.00017581
-7.41685e-06
0.000176821
-8.0007e-06
0.000177902
-8.53778e-06
0.000179048
-9.03291e-06
0.000180252
-9.49009e-06
0.000181512
-9.91267e-06
0.000182821
-1.03035e-05
0.000184177
-1.06649e-05
0.000185576
-1.09991e-05
0.000187015
-1.13078e-05
0.000188489
-1.15925e-05
0.000189997
-1.18546e-05
0.000191535
-1.20952e-05
0.0001931
-1.23153e-05
0.00019469
-1.25159e-05
0.000196303
-1.26978e-05
0.000197936
-1.28615e-05
0.000199587
-1.30078e-05
0.000201252
-1.31372e-05
0.000202932
-1.32502e-05
0.000204622
-1.33471e-05
0.000206321
-1.34284e-05
0.000208027
-1.34945e-05
0.000209739
-1.35455e-05
0.000211453
-1.35818e-05
0.000213169
-1.36036e-05
0.000214884
-1.3611e-05
0.000216597
-1.36043e-05
0.000218305
-1.35835e-05
0.000220008
-1.35488e-05
0.000221702
-1.35001e-05
0.000223387
-1.34375e-05
0.000225061
-1.33611e-05
0.000226722
-1.32706e-05
0.000228368
-1.31662e-05
0.000229997
-1.30475e-05
0.000231609
-1.29145e-05
0.000233201
-1.2767e-05
0.000234772
-1.26045e-05
0.00023632
-1.24269e-05
0.000237843
-1.22336e-05
0.00023934
-1.20243e-05
0.00024081
-1.17983e-05
0.00024225
-1.15551e-05
0.000243659
-1.12938e-05
0.000245036
-1.10137e-05
0.00024638
-1.07139e-05
0.000247689
-1.03932e-05
0.000248962
-1.00505e-05
0.000250197
-9.68434e-06
0.000251395
-9.29336e-06
0.000252555
-8.87588e-06
0.000253677
-8.4301e-06
0.00025476
-7.95408e-06
0.000255807
-7.44574e-06
0.000256819
-6.90285e-06
0.000257798
-6.32315e-06
0.000258749
-5.70434e-06
0.000259678
-5.0442e-06
0.000260591
-4.34073e-06
0.000261499
-3.59229e-06
0.000262413
-2.79785e-06
0.00026335
-1.95724e-06
0.000264327
-1.07133e-06
0.000265366
-1.42117e-07
0.00026649
8.2524e-07
0.000267725
1.82252e-06
0.000269101
2.83876e-06
0.000270644
3.86023e-06
0.00027238
4.86968e-06
0.000274325
5.84681e-06
0.000276487
6.7691e-06
0.000278858
7.61347e-06
8.35916e-06
0.000281412
0.000183318
-1.40662e-06
0.000183624
-2.78036e-06
0.00018407
-3.97783e-06
0.000184644
-5.04608e-06
0.000185334
-6.00792e-06
0.000186129
-6.87873e-06
0.000187019
-7.67115e-06
0.000187998
-8.39543e-06
0.000189057
-9.05977e-06
0.00019019
-9.67078e-06
0.000191392
-1.02339e-05
0.000192655
-1.07537e-05
0.000193977
-1.1234e-05
0.000195351
-1.1678e-05
0.000196775
-1.20884e-05
0.000198244
-1.24677e-05
0.000199754
-1.28178e-05
0.000201302
-1.31404e-05
0.000202885
-1.34373e-05
0.000204499
-1.37096e-05
0.000206142
-1.39585e-05
0.000207812
-1.4185e-05
0.000209504
-1.43902e-05
0.000211217
-1.45746e-05
0.000212949
-1.47392e-05
0.000214696
-1.48844e-05
0.000216457
-1.50108e-05
0.000218229
-1.5119e-05
0.00022001
-1.52094e-05
0.000221798
-1.52824e-05
0.000223591
-1.53382e-05
0.000225387
-1.53773e-05
0.000227183
-1.53999e-05
0.000228979
-1.54061e-05
0.000230771
-1.53963e-05
0.000232558
-1.53705e-05
0.000234338
-1.53289e-05
0.00023611
-1.52716e-05
0.000237871
-1.51985e-05
0.00023962
-1.51098e-05
0.000241355
-1.50054e-05
0.000243074
-1.48853e-05
0.000244776
-1.47492e-05
0.000246458
-1.45972e-05
0.00024812
-1.4429e-05
0.00024976
-1.42443e-05
0.000251376
-1.40428e-05
0.000252967
-1.38242e-05
0.000254531
-1.35881e-05
0.000256067
-1.33339e-05
0.000257573
-1.30611e-05
0.000259048
-1.27691e-05
0.000260491
-1.24571e-05
0.000261902
-1.21244e-05
0.000263279
-1.17699e-05
0.000264621
-1.13928e-05
0.000265929
-1.0992e-05
0.000267202
-1.05663e-05
0.00026844
-1.01144e-05
0.000269645
-9.63505e-06
0.000270818
-9.12692e-06
0.000271961
-8.58862e-06
0.000273077
-8.01883e-06
0.00027417
-7.41632e-06
0.000275246
-6.78002e-06
0.000276311
-6.10915e-06
0.000277374
-5.40334e-06
0.000278444
-4.66279e-06
0.000279535
-3.88845e-06
0.00028066
-3.08222e-06
0.000281835
-2.24713e-06
0.000283081
-1.38743e-06
0.000284414
-5.08326e-07
0.000285854
3.82228e-07
0.000287419
1.27394e-06
0.000289125
2.1545e-06
0.000290984
3.01028e-06
0.000293004
3.82709e-06
0.000295183
4.5902e-06
0.000297511
5.2858e-06
5.90284e-06
0.000299967
0.000196151
-1.55916e-06
0.000196467
-3.09645e-06
0.00019693
-4.44078e-06
0.000197526
-5.64212e-06
0.000198244
-6.72538e-06
0.000199072
-7.70694e-06
0.000200001
-8.60048e-06
0.000201023
-9.4173e-06
0.00020213
-1.01665e-05
0.000203315
-1.08555e-05
0.000204572
-1.14903e-05
0.000205894
-1.20761e-05
0.000207277
-1.26171e-05
0.000208717
-1.31171e-05
0.000210207
-1.3579e-05
0.000211745
-1.40056e-05
0.000213327
-1.43991e-05
0.000214948
-1.47616e-05
0.000216606
-1.50948e-05
0.000218297
-1.54001e-05
0.000220017
-1.5679e-05
0.000221765
-1.59325e-05
0.000223537
-1.61617e-05
0.00022533
-1.63676e-05
0.000227142
-1.65508e-05
0.00022897
-1.67122e-05
0.000230811
-1.68524e-05
0.000232664
-1.69719e-05
0.000234527
-1.70713e-05
0.000236395
-1.7151e-05
0.000238269
-1.72113e-05
0.000240144
-1.72528e-05
0.00024202
-1.72756e-05
0.000243894
-1.72801e-05
0.000245765
-1.72665e-05
0.000247629
-1.72349e-05
0.000249486
-1.71857e-05
0.000251334
-1.71188e-05
0.00025317
-1.70343e-05
0.000254992
-1.69324e-05
0.0002568
-1.68131e-05
0.000258591
-1.66762e-05
0.000260364
-1.65219e-05
0.000262117
-1.63498e-05
0.000263848
-1.61601e-05
0.000265556
-1.59523e-05
0.00026724
-1.57263e-05
0.000268897
-1.54819e-05
0.000270528
-1.52186e-05
0.00027213
-1.4936e-05
0.000273703
-1.46338e-05
0.000275245
-1.43115e-05
0.000276757
-1.39683e-05
0.000278236
-1.36039e-05
0.000279684
-1.32174e-05
0.000281099
-1.28081e-05
0.000282483
-1.23755e-05
0.000283835
-1.19185e-05
0.000285157
-1.14366e-05
0.000286451
-1.09289e-05
0.000287719
-1.03947e-05
0.000288964
-9.83348e-06
0.00029019
-9.24469e-06
0.000291402
-8.6281e-06
0.000292605
-7.98375e-06
0.000293808
-7.31205e-06
0.000295019
-6.61392e-06
0.000296247
-5.89085e-06
0.000297503
-5.14509e-06
0.000298801
-4.37973e-06
0.000300153
-3.59882e-06
0.000301573
-2.80738e-06
0.000303076
-2.0114e-06
0.000304675
-1.21758e-06
0.000306383
-4.33513e-07
0.000308206
3.31488e-07
0.000310149
1.06735e-06
0.000312212
1.764e-06
0.00031439
2.41171e-06
0.000316674
3.00218e-06
3.52985e-06
0.000319047
0.000209883
-1.71639e-06
0.000210209
-3.42263e-06
0.000210688
-4.91981e-06
0.000211306
-6.26003e-06
0.000212051
-7.47028e-06
0.000212912
-8.56794e-06
0.000213879
-9.56765e-06
0.000214944
-1.04817e-05
0.000216097
-1.13201e-05
0.000217333
-1.20911e-05
0.000218644
-1.28013e-05
0.000220025
-1.34564e-05
0.000221469
-1.40613e-05
0.000222972
-1.46199e-05
0.000224529
-1.51358e-05
0.000226135
-1.56119e-05
0.000227787
-1.60509e-05
0.000229481
-1.64549e-05
0.000231212
-1.6826e-05
0.000232978
-1.71657e-05
0.000234775
-1.74756e-05
0.0002366
-1.77571e-05
0.00023845
-1.80112e-05
0.000240321
-1.8239e-05
0.000242212
-1.84415e-05
0.000244119
-1.86193e-05
0.00024604
-1.87733e-05
0.000247973
-1.89042e-05
0.000249914
-1.90124e-05
0.000251862
-1.90986e-05
0.000253814
-1.91631e-05
0.000255768
-1.92065e-05
0.000257722
-1.9229e-05
0.000259673
-1.92311e-05
0.000261619
-1.92129e-05
0.000263559
-1.91749e-05
0.000265491
-1.91171e-05
0.000267412
-1.90397e-05
0.000269321
-1.8943e-05
0.000271216
-1.88269e-05
0.000273094
-1.86917e-05
0.000274956
-1.85373e-05
0.000276798
-1.83637e-05
0.000278619
-1.8171e-05
0.000280418
-1.79589e-05
0.000282193
-1.77275e-05
0.000283944
-1.74766e-05
0.000285668
-1.7206e-05
0.000287365
-1.69155e-05
0.000289034
-1.66048e-05
0.000290674
-1.62736e-05
0.000292284
-1.59217e-05
0.000293864
-1.55487e-05
0.000295415
-1.51542e-05
0.000296935
-1.47378e-05
0.000298426
-1.42992e-05
0.000299889
-1.3838e-05
0.000301324
-1.33538e-05
0.000302734
-1.28464e-05
0.000304121
-1.23156e-05
0.000305488
-1.17614e-05
0.000306838
-1.11837e-05
0.000308176
-1.0583e-05
0.000309508
-9.95982e-06
0.000310839
-9.31502e-06
0.000312177
-8.64994e-06
0.00031353
-7.96635e-06
0.000314905
-7.26655e-06
0.000316314
-6.55345e-06
0.000317765
-5.83062e-06
0.000319268
-5.1023e-06
0.000320834
-4.3734e-06
0.000322472
-3.64945e-06
0.000324191
-2.93646e-06
0.000325998
-2.24083e-06
0.000327898
-1.56881e-06
0.000329892
-9.26534e-07
0.000331977
-3.2046e-07
0.000334145
2.43446e-07
0.000336387
7.60173e-07
1.2267e-06
0.00033869
0.000224576
-1.87829e-06
0.000224912
-3.7587e-06
0.000225406
-5.41448e-06
0.000226046
-6.89921e-06
0.000226817
-8.24188e-06
0.00022771
-9.46085e-06
0.000228714
-1.05716e-05
0.00022982
-1.15875e-05
0.00023102
-1.25194e-05
0.000232305
-1.33763e-05
0.000233669
-1.41654e-05
0.000235106
-1.48932e-05
0.00023661
-1.55649e-05
0.000238175
-1.61849e-05
0.000239797
-1.67572e-05
0.00024147
-1.72851e-05
0.000243191
-1.77715e-05
0.000244955
-1.82187e-05
0.000246758
-1.86291e-05
0.000248597
-1.90045e-05
0.000250468
-1.93466e-05
0.000252368
-1.96568e-05
0.000254294
-1.99365e-05
0.000256242
-2.01868e-05
0.00025821
-2.04088e-05
0.000260194
-2.06034e-05
0.000262192
-2.07713e-05
0.000264201
-2.09134e-05
0.000266219
-2.10303e-05
0.000268244
-2.11226e-05
0.000270272
-2.11909e-05
0.000272301
-2.12357e-05
0.00027433
-2.12573e-05
0.000276355
-2.12563e-05
0.000278375
-2.12329e-05
0.000280388
-2.11875e-05
0.000282392
-2.11203e-05
0.000284384
-2.10317e-05
0.000286363
-2.09218e-05
0.000288327
-2.07908e-05
0.000290274
-2.06388e-05
0.000292203
-2.04661e-05
0.000294112
-2.02726e-05
0.000296
-2.00584e-05
0.000297864
-1.98237e-05
0.000299705
-1.95683e-05
0.000301521
-1.92922e-05
0.000303311
-1.89955e-05
0.000305073
-1.86781e-05
0.000306809
-1.83398e-05
0.000308516
-1.79806e-05
0.000310194
-1.76004e-05
0.000311845
-1.71991e-05
0.000313467
-1.67766e-05
0.000315063
-1.63329e-05
0.000316631
-1.58679e-05
0.000318175
-1.53817e-05
0.000319696
-1.48743e-05
0.000321195
-1.4346e-05
0.000322677
-1.37972e-05
0.000324144
-1.32283e-05
0.0003256
-1.26399e-05
0.00032705
-1.20332e-05
0.0003285
-1.14092e-05
0.000329954
-1.07695e-05
0.00033142
-1.01159e-05
0.000332904
-9.45067e-06
0.000334414
-8.77654e-06
0.000335958
-8.09659e-06
0.000337541
-7.41436e-06
0.000339173
-6.73382e-06
0.000340859
-6.05928e-06
0.000342605
-5.39536e-06
0.000344415
-4.74689e-06
0.000346293
-4.11873e-06
0.00034824
-3.51564e-06
0.000350255
-2.94215e-06
0.000352337
-2.40237e-06
0.00035448
-1.89936e-06
0.000356675
-1.43524e-06
-1.01131e-06
0.000358913
0.000240297
-2.0448e-06
0.000240643
-4.10434e-06
0.000241152
-5.92419e-06
0.000241812
-7.55883e-06
0.000242609
-9.0391e-06
0.000243533
-1.03844e-05
0.000244572
-1.1611e-05
0.000245718
-1.27332e-05
0.000246961
-1.37627e-05
0.000248295
-1.47092e-05
0.00024971
-1.55808e-05
0.000251202
-1.63844e-05
0.000252763
-1.71258e-05
0.000254388
-1.78099e-05
0.000256072
-1.8441e-05
0.000257809
-1.90227e-05
0.000259596
-1.95582e-05
0.000261428
-2.00503e-05
0.000263301
-2.05014e-05
0.00026521
-2.09137e-05
0.000267153
-2.12889e-05
0.000269125
-2.16287e-05
0.000271123
-2.19346e-05
0.000273144
-2.22078e-05
0.000275185
-2.24496e-05
0.000277243
-2.2661e-05
0.000279315
-2.28428e-05
0.000281398
-2.2996e-05
0.000283489
-2.31214e-05
0.000285586
-2.32195e-05
0.000287686
-2.32911e-05
0.000289788
-2.33367e-05
0.000291887
-2.33568e-05
0.000293983
-2.3352e-05
0.000296073
-2.33226e-05
0.000298155
-2.32691e-05
0.000300227
-2.31918e-05
0.000302286
-2.3091e-05
0.000304332
-2.29672e-05
0.000306362
-2.28204e-05
0.000308374
-2.26511e-05
0.000310367
-2.24594e-05
0.00031234
-2.22455e-05
0.000314292
-2.20095e-05
0.00031622
-2.17518e-05
0.000318124
-2.14723e-05