/*--------------------------------*- C++ -*----------------------------------*\
| =========                 |                                                 |
| \\      /  F ield         | OpenFOAM: The Open Source CFD Toolbox           |
|  \\    /   O peration     | Version:  2106                                  |
|   \\  /    A nd           | Website:  www.openfoam.com                      |
|    \\/     M anipulation  |                                                 |
\*---------------------------------------------------------------------------*/
FoamFile
{
    version     2.0;
    format      ascii;
    arch        "LSB;label=32;scalar=64";
    class       volScalarField;
    location    "8.4";
    object      T;
}
// * * * * * * * * * * * * * * * * * * * * * * * * * * * * * * * * * * * * * //

dimensions      [0 0 0 1 0 0 0];

internalField   nonuniform List<scalar> 
12013
(
300.004
300.011
300.019
300.026
300.035
300.043
300.052
300.061
300.071
300.081
300.091
300.102
300.113
300.125
300.136
300.149
300.161
300.175
300.188
300.202
300.217
300.232
300.247
300.263
300.279
300.296
300.314
300.332
300.35
300.369
300.389
300.409
300.43
300.452
300.474
300.496
300.52
300.544
300.568
300.594
300.62
300.647
300.674
300.703
300.732
300.762
300.793
300.824
300.857
300.89
300.925
300.96
300.997
301.034
301.072
301.112
301.153
301.195
301.238
301.283
301.328
301.376
301.425
301.475
301.527
301.581
301.637
301.695
301.755
301.817
301.882
301.95
302.022
302.097
302.176
302.26
302.351
302.449
302.558
302.681
302.829
300.004
300.011
300.019
300.026
300.035
300.043
300.052
300.061
300.071
300.081
300.091
300.102
300.113
300.125
300.136
300.149
300.161
300.175
300.188
300.202
300.217
300.232
300.247
300.263
300.279
300.296
300.314
300.332
300.35
300.369
300.389
300.409
300.43
300.451
300.474
300.496
300.52
300.544
300.568
300.594
300.62
300.647
300.674
300.703
300.732
300.762
300.792
300.824
300.857
300.89
300.925
300.96
300.996
301.034
301.072
301.112
301.153
301.195
301.238
301.282
301.328
301.375
301.424
301.474
301.526
301.58
301.636
301.694
301.754
301.816
301.881
301.948
302.019
302.094
302.172
302.256
302.345
302.441
302.545
302.66
302.786
300.004
300.011
300.019
300.026
300.035
300.043
300.052
300.061
300.071
300.081
300.091
300.102
300.113
300.125
300.136
300.149
300.161
300.175
300.188
300.202
300.217
300.232
300.247
300.263
300.279
300.296
300.314
300.332
300.35
300.369
300.389
300.409
300.43
300.451
300.473
300.496
300.519
300.543
300.568
300.594
300.62
300.646
300.674
300.702
300.732
300.761
300.792
300.824
300.856
300.89
300.924
300.96
300.996
301.033
301.072
301.111
301.152
301.194
301.237
301.281
301.327
301.374
301.423
301.473
301.525
301.578
301.634
301.691
301.751
301.813
301.877
301.944
302.014
302.088
302.165
302.246
302.332
302.424
302.521
302.624
302.732
300.004
300.011
300.019
300.026
300.035
300.043
300.052
300.061
300.071
300.081
300.091
300.102
300.113
300.125
300.136
300.149
300.161
300.175
300.188
300.202
300.217
300.232
300.247
300.263
300.279
300.296
300.314
300.332
300.35
300.369
300.389
300.409
300.43
300.451
300.473
300.496
300.519
300.543
300.568
300.593
300.619
300.646
300.674
300.702
300.731
300.761
300.792
300.824
300.856
300.889
300.924
300.959
300.995
301.033
301.071
301.11
301.151
301.193
301.236
301.28
301.325
301.372
301.421
301.471
301.522
301.576
301.631
301.687
301.746
301.808
301.871
301.937
302.006
302.078
302.153
302.231
302.313
302.399
302.489
302.581
302.674
300.004
300.011
300.019
300.026
300.035
300.043
300.052
300.061
300.071
300.081
300.091
300.102
300.113
300.125
300.136
300.149
300.161
300.175
300.188
300.202
300.217
300.232
300.247
300.263
300.279
300.296
300.314
300.332
300.35
300.369
300.389
300.409
300.43
300.451
300.473
300.496
300.519
300.543
300.568
300.593
300.619
300.646
300.673
300.702
300.731
300.761
300.791
300.823
300.855
300.889
300.923
300.958
300.994
301.031
301.07
301.109
301.149
301.191
301.234
301.278
301.323
301.37
301.418
301.467
301.519
301.571
301.626
301.682
301.74
301.8
301.863
301.927
301.994
302.064
302.136
302.211
302.288
302.368
302.45
302.533
302.615
300.004
300.011
300.019
300.026
300.035
300.043
300.052
300.061
300.071
300.081
300.091
300.102
300.113
300.125
300.136
300.149
300.161
300.175
300.188
300.202
300.217
300.232
300.247
300.263
300.279
300.296
300.314
300.332
300.35
300.369
300.389
300.409
300.43
300.451
300.473
300.496
300.519
300.543
300.567
300.593
300.619
300.645
300.673
300.701
300.73
300.76
300.791
300.822
300.854
300.888
300.922
300.957
300.993
301.03
301.068
301.107
301.147
301.189
301.231
301.275
301.32
301.366
301.414
301.463
301.513
301.566
301.619
301.675
301.732
301.79
301.851
301.914
301.979
302.046
302.115
302.185
302.258
302.332
302.407
302.482
302.556
300.004
300.011
300.019
300.026
300.035
300.043
300.052
300.061
300.071
300.081
300.091
300.102
300.113
300.125
300.136
300.149
300.161
300.175
300.188
300.202
300.217
300.231
300.247
300.263
300.279
300.296
300.313
300.331
300.35
300.369
300.388
300.409
300.429
300.451
300.473
300.495
300.519
300.542
300.567
300.592
300.618
300.645
300.672
300.7
300.729
300.759
300.79
300.821
300.853
300.886
300.92
300.955
300.991
301.028
301.066
301.105
301.145
301.186
301.228
301.271
301.316
301.362
301.409
301.457
301.507
301.558
301.611
301.665
301.721
301.778
301.837
301.898
301.96
302.024
302.089
302.156
302.224
302.292
302.361
302.429
302.496
300.004
300.011
300.019
300.026
300.035
300.043
300.052
300.061
300.071
300.081
300.091
300.102
300.113
300.124
300.136
300.149
300.161
300.174
300.188
300.202
300.216
300.231
300.247
300.263
300.279
300.296
300.313
300.331
300.35
300.369
300.388
300.408
300.429
300.45
300.472
300.495
300.518
300.542
300.566
300.592
300.618
300.644
300.671
300.7
300.728
300.758
300.788
300.82
300.852
300.885
300.918
300.953
300.989
301.025
301.063
301.102
301.141
301.182
301.224
301.266
301.31
301.356
301.402
301.45
301.498
301.549
301.6
301.653
301.707
301.763
301.82
301.878
301.938
301.998
302.06
302.123
302.186
302.249
302.312
302.375
302.436
300.004
300.011
300.019
300.026
300.035
300.043
300.052
300.061
300.071
300.081
300.091
300.102
300.113
300.124
300.136
300.149
300.161
300.174
300.188
300.202
300.216
300.231
300.247
300.263
300.279
300.296
300.313
300.331
300.349
300.368
300.388
300.408
300.429
300.45
300.472
300.494
300.518
300.541
300.566
300.591
300.617
300.643
300.67
300.698
300.727
300.757
300.787
300.818
300.85
300.883
300.916
300.951
300.986
301.022
301.059
301.098
301.137
301.177
301.218
301.26
301.304
301.348
301.394
301.44
301.488
301.537
301.587
301.639
301.691
301.745
301.8
301.855
301.912
301.969
302.028
302.086
302.145
302.204
302.262
302.319
302.376
300.004
300.011
300.019
300.026
300.035
300.043
300.052
300.061
300.071
300.081
300.091
300.102
300.113
300.124
300.136
300.149
300.161
300.174
300.188
300.202
300.216
300.231
300.246
300.262
300.279
300.296
300.313
300.331
300.349
300.368
300.388
300.408
300.428
300.449
300.471
300.494
300.517
300.541
300.565
300.59
300.616
300.642
300.669
300.697
300.726
300.755
300.785
300.816
300.847
300.88
300.913
300.947
300.982
301.018
301.055
301.093
301.132
301.171
301.212
301.253
301.296
301.339
301.384
301.43
301.476
301.524
301.572
301.622
301.673
301.724
301.776
301.829
301.883
301.937
301.992
302.047
302.101
302.156
302.21
302.263
302.315
300.004
300.011
300.018
300.026
300.035
300.043
300.052
300.061
300.071
300.081
300.091
300.102
300.113
300.124
300.136
300.148
300.161
300.174
300.188
300.202
300.216
300.231
300.246
300.262
300.278
300.295
300.313
300.33
300.349
300.368
300.387
300.407
300.428
300.449
300.471
300.493
300.516
300.54
300.564
300.589
300.614
300.641
300.668
300.695
300.724
300.753
300.783
300.813
300.845
300.877
300.91
300.943
300.978
301.014
301.05
301.087
301.125
301.164
301.204
301.245
301.286
301.329
301.372
301.417
301.462
301.508
301.555
301.603
301.651
301.7
301.75
301.801
301.851
301.902
301.954
302.005
302.056
302.106
302.156
302.206
302.254
300.004
300.011
300.018
300.026
300.035
300.043
300.052
300.061
300.071
300.081
300.091
300.102
300.113
300.124
300.136
300.148
300.161
300.174
300.188
300.202
300.216
300.231
300.246
300.262
300.278
300.295
300.312
300.33
300.348
300.367
300.387
300.406
300.427
300.448
300.47
300.492
300.515
300.538
300.563
300.587
300.613
300.639
300.666
300.693
300.721
300.75
300.78
300.81
300.841
300.873
300.905
300.939
300.973
301.008
301.044
301.08
301.118
301.156
301.195
301.235
301.275
301.317
301.359
301.402
301.446
301.49
301.535
301.581
301.627
301.674
301.721
301.769
301.817
301.865
301.913
301.961
302.008
302.055
302.102
302.147
302.192
300.004
300.011
300.018
300.026
300.035
300.043
300.052
300.061
300.071
300.081
300.091
300.102
300.113
300.124
300.136
300.148
300.161
300.174
300.187
300.201
300.216
300.23
300.246
300.262
300.278
300.295
300.312
300.329
300.348
300.367
300.386
300.406
300.426
300.447
300.469
300.491
300.514
300.537
300.561
300.586
300.611
300.637
300.663
300.69
300.718
300.747
300.776
300.806
300.837
300.868
300.9
300.933
300.967
301.001
301.036
301.072
301.109
301.146
301.184
301.223
301.262
301.303
301.343
301.385
301.427
301.47
301.513
301.557
301.601
301.645
301.69
301.735
301.78
301.825
301.87
301.915
301.959
302.003
302.046
302.088
302.13
300.004
300.011
300.018
300.026
300.035
300.043
300.052
300.061
300.071
300.081
300.091
300.102
300.113
300.124
300.136
300.148
300.161
300.174
300.187
300.201
300.215
300.23
300.245
300.261
300.277
300.294
300.311
300.329
300.347
300.366
300.385
300.405
300.425
300.446
300.467
300.489
300.512
300.535
300.559
300.584
300.609
300.634
300.66
300.687
300.715
300.743
300.772
300.802
300.832
300.863
300.895
300.927
300.96
300.993
301.028
301.063
301.099
301.135
301.172
301.209
301.248
301.287
301.326
301.366
301.406
301.447
301.489
301.53
301.572
301.614
301.656
301.699
301.741
301.783
301.825
301.867
301.908
301.949
301.989
302.029
302.068
300.004
300.011
300.018
300.026
300.035
300.043
300.052
300.061
300.071
300.081
300.091
300.101
300.112
300.124
300.136
300.148
300.16
300.173
300.187
300.201
300.215
300.23
300.245
300.261
300.277
300.293
300.311
300.328
300.346
300.365
300.384
300.404
300.424
300.445
300.466
300.488
300.51
300.533
300.557
300.581
300.606
300.631
300.657
300.684
300.711
300.739
300.767
300.797
300.826
300.857
300.888
300.919
300.952
300.985
301.018
301.052
301.087
301.122
301.158
301.194
301.231
301.269
301.307
301.345
301.384
301.423
301.462
301.501
301.541
301.581
301.621
301.66
301.7
301.74
301.779
301.818
301.856
301.894
301.932
301.969
302.005
300.004
300.011
300.018
300.026
300.035
300.043
300.052
300.061
300.071
300.08
300.091
300.101
300.112
300.124
300.135
300.148
300.16
300.173
300.187
300.2
300.215
300.229
300.245
300.26
300.276
300.293
300.31
300.327
300.345
300.364
300.383
300.402
300.423
300.443
300.464
300.486
300.508
300.531
300.554
300.578
300.603
300.628
300.653
300.68
300.707
300.734
300.762
300.791
300.82
300.85
300.88
300.911
300.942
300.974
301.007
301.04
301.074
301.108
301.142
301.178
301.213
301.249
301.285
301.322
301.359
301.396
301.433
301.471
301.508
301.546
301.583
301.62
301.658
301.695
301.731
301.768
301.804
301.839
301.874
301.909
301.942
300.004
300.011
300.018
300.026
300.034
300.043
300.052
300.061
300.071
300.08
300.091
300.101
300.112
300.124
300.135
300.147
300.16
300.173
300.186
300.2
300.214
300.229
300.244
300.259
300.276
300.292
300.309
300.326
300.344
300.363
300.382
300.401
300.421
300.441
300.462
300.484
300.506
300.528
300.551
300.575
300.599
300.624
300.649
300.675
300.701
300.728
300.756
300.784
300.812
300.841
300.871
300.901
300.932
300.963
300.994
301.027
301.059
301.092
301.125
301.159
301.193
301.227
301.262
301.297
301.332
301.367
301.402
301.438
301.473
301.508
301.544
301.579
301.614
301.648
301.683
301.716
301.75
301.783
301.816
301.848
301.88
300.004
300.011
300.018
300.026
300.034
300.043
300.052
300.061
300.07
300.08
300.09
300.101
300.112
300.123
300.135
300.147
300.16
300.172
300.186
300.2
300.214
300.228
300.243
300.259
300.275
300.291
300.308
300.325
300.343
300.361
300.38
300.399
300.419
300.439
300.46
300.481
300.503
300.525
300.548
300.571
300.595
300.619
300.644
300.669
300.695
300.722
300.749
300.776
300.804
300.832
300.861
300.89
300.92
300.95
300.981
301.012
301.043
301.075
301.107
301.139
301.171
301.204
301.237
301.27
301.303
301.337
301.37
301.403
301.437
301.47
301.503
301.536
301.568
301.601
301.633
301.665
301.696
301.727
301.757
301.787
301.817
300.004
300.011
300.018
300.026
300.034
300.043
300.052
300.061
300.07
300.08
300.09
300.101
300.112
300.123
300.135
300.147
300.159
300.172
300.185
300.199
300.213
300.228
300.242
300.258
300.274
300.29
300.307
300.324
300.341
300.36
300.378
300.397
300.417
300.437
300.457
300.478
300.5
300.522
300.544
300.567
300.59
300.614
300.638
300.663
300.689
300.714
300.741
300.767
300.794
300.822
300.85
300.878
300.907
300.936
300.965
300.995
301.025
301.056
301.086
301.117
301.148
301.179
301.21
301.242
301.273
301.305
301.336
301.368
301.399
301.43
301.461
301.492
301.522
301.553
301.582
301.612
301.641
301.67
301.699
301.727
301.754
300.004
300.011
300.018
300.026
300.034
300.043
300.052
300.061
300.07
300.08
300.09
300.101
300.111
300.123
300.134
300.146
300.159
300.171
300.185
300.198
300.212
300.227
300.242
300.257
300.273
300.289
300.305
300.322
300.34
300.358
300.376
300.395
300.414
300.434
300.454
300.475
300.496
300.517
300.539
300.562
300.585
300.608
300.632
300.656
300.681
300.706
300.732
300.758
300.784
300.81
300.838
300.865
300.893
300.921
300.949
300.977
301.006
301.035
301.064
301.094
301.123
301.153
301.182
301.212
301.242
301.271
301.301
301.331
301.36
301.389
301.418
301.447
301.475
301.504
301.532
301.559
301.587
301.614
301.64
301.666
301.692
300.004
300.011
300.018
300.026
300.034
300.043
300.051
300.06
300.07
300.08
300.09
300.1
300.111
300.122
300.134
300.146
300.158
300.171
300.184
300.198
300.211
300.226
300.241
300.256
300.271
300.287
300.304
300.32
300.338
300.355
300.374
300.392
300.411
300.431
300.451
300.471
300.492
300.513
300.534
300.556
300.579
300.602
300.625
300.649
300.673
300.697
300.722
300.747
300.772
300.798
300.824
300.85
300.877
300.904
300.931
300.958
300.986
301.014
301.041
301.069
301.097
301.125
301.153
301.181
301.209
301.237
301.265
301.292
301.32
301.347
301.375
301.401
301.428
301.455
301.481
301.507
301.532
301.557
301.582
301.606
301.63
300.004
300.011
300.018
300.026
300.034
300.042
300.051
300.06
300.07
300.079
300.089
300.1
300.111
300.122
300.133
300.145
300.158
300.17
300.183
300.197
300.21
300.225
300.239
300.254
300.27
300.286
300.302
300.318
300.336
300.353
300.371
300.389
300.408
300.427
300.447
300.467
300.487
300.508
300.529
300.55
300.572
300.594
300.617
300.64
300.663
300.687
300.711
300.735
300.76
300.785
300.81
300.835
300.861
300.886
300.912
300.938
300.964
300.991
301.017
301.043
301.07
301.096
301.123
301.149
301.175
301.202
301.228
301.254
301.28
301.305
301.331
301.356
301.381
301.405
301.43
301.454
301.478
301.501
301.524
301.547
301.569
300.004
300.011
300.018
300.026
300.034
300.042
300.051
300.06
300.069
300.079
300.089
300.1
300.11
300.121
300.133
300.145
300.157
300.169
300.182
300.196
300.209
300.223
300.238
300.253
300.268
300.284
300.3
300.316
300.333
300.35
300.368
300.386
300.404
300.423
300.442
300.462
300.482
300.502
300.523
300.544
300.565
300.587
300.608
300.631
300.653
300.676
300.699
300.723
300.746
300.77
300.794
300.818
300.843
300.867
300.892
300.917
300.942
300.967
300.992
301.017
301.042
301.067
301.092
301.116
301.141
301.166
301.19
301.215
301.239
301.263
301.286
301.31
301.333
301.356
301.379
301.402
301.424
301.446
301.467
301.489
301.51
300.003
300.011
300.018
300.026
300.034
300.042
300.051
300.06
300.069
300.079
300.089
300.099
300.11
300.121
300.132
300.144
300.156
300.168
300.181
300.195
300.208
300.222
300.236
300.251
300.266
300.282
300.297
300.314
300.33
300.347
300.365
300.382
300.4
300.419
300.437
300.456
300.476
300.496
300.516
300.536
300.557
300.578
300.599
300.621
300.643
300.665
300.687
300.709
300.732
300.755
300.778
300.801
300.824
300.848
300.871
300.895
300.918
300.942
300.966
300.989
301.013
301.036
301.06
301.083
301.106
301.129
301.152
301.175
301.198
301.22
301.243
301.265
301.286
301.308
301.329
301.35
301.371
301.391
301.411
301.431
301.451
300.003
300.011
300.018
300.026
300.034
300.042
300.051
300.06
300.069
300.078
300.088
300.099
300.109
300.12
300.131
300.143
300.155
300.167
300.18
300.193
300.207
300.221
300.235
300.249
300.264
300.279
300.295
300.311
300.327
300.344
300.361
300.378
300.396
300.414
300.432
300.451
300.47
300.489
300.508
300.528
300.548
300.569
300.589
300.61
300.631
300.652
300.674
300.695
300.717
300.739
300.761
300.783
300.805
300.827
300.85
300.872
300.894
300.917
300.939
300.961
300.984
301.006
301.028
301.05
301.072
301.093
301.115
301.136
301.157
301.178
301.199
301.22
301.24
301.26
301.28
301.3
301.319
301.338
301.357
301.375
301.394
300.003
300.011
300.018
300.026
300.034
300.042
300.05
300.059
300.068
300.078
300.088
300.098
300.109
300.119
300.131
300.142
300.154
300.166
300.179
300.192
300.205
300.219
300.233
300.247
300.262
300.277
300.292
300.308
300.324
300.34
300.357
300.374
300.391
300.409
300.426
300.445
300.463
300.482
300.501
300.52
300.539
300.559
300.579
300.599
300.619
300.639
300.66
300.681
300.701
300.722
300.743
300.764
300.785
300.806
300.828
300.849
300.87
300.891
300.912
300.933
300.954
300.975
300.996
301.016
301.037
301.057
301.077
301.097
301.117
301.137
301.156
301.176
301.195
301.213
301.232
301.25
301.268
301.286
301.304
301.321
301.338
300.003
300.01
300.018
300.025
300.033
300.042
300.05
300.059
300.068
300.078
300.087
300.097
300.108
300.119
300.13
300.141
300.153
300.165
300.178
300.19
300.203
300.217
300.231
300.245
300.259
300.274
300.289
300.304
300.32
300.336
300.352
300.369
300.386
300.403
300.42
300.438
300.456
300.474
300.492
300.511
300.53
300.549
300.568
300.587
300.606
300.626
300.646
300.665
300.685
300.705
300.725
300.745
300.765
300.785
300.805
300.825
300.845
300.865
300.885
300.905
300.925
300.944
300.964
300.983
301.003
301.022
301.041
301.059
301.078
301.096
301.115
301.133
301.15
301.168
301.185
301.203
301.219
301.236
301.253
301.269
301.285
300.003
300.01
300.018
300.025
300.033
300.041
300.05
300.059
300.068
300.077
300.087
300.097
300.107
300.118
300.129
300.14
300.152
300.164
300.176
300.189
300.202
300.215
300.228
300.242
300.256
300.271
300.286
300.301
300.316
300.332
300.348
300.364
300.38
300.397
300.414
300.431
300.448
300.466
300.484
300.502
300.52
300.538
300.556
300.575
300.594
300.612
300.631
300.65
300.669
300.688
300.707
300.726
300.745
300.764
300.783
300.802
300.821
300.84
300.859
300.877
300.896
300.914
300.933
300.951
300.969
300.987
301.005
301.022
301.04
301.057
301.074
301.091
301.108
301.124
301.141
301.157
301.173
301.188
301.204
301.219
301.234
300.003
300.01
300.018
300.025
300.033
300.041
300.049
300.058
300.067
300.076
300.086
300.096
300.106
300.117
300.128
300.139
300.15
300.162
300.174
300.187
300.2
300.213
300.226
300.24
300.254
300.268
300.282
300.297
300.312
300.327
300.343
300.359
300.375
300.391
300.407
300.424
300.441
300.458
300.475
300.492
300.51
300.527
300.545
300.563
300.58
300.598
300.616
300.634
300.653
300.671
300.689
300.707
300.725
300.743
300.761
300.779
300.797
300.815
300.833
300.85
300.868
300.885
300.903
300.92
300.937
300.954
300.97
300.987
301.003
301.02
301.036
301.052
301.067
301.083
301.098
301.113
301.128
301.143
301.157
301.171
301.185
300.003
300.01
300.017
300.025
300.033
300.041
300.049
300.058
300.067
300.076
300.085
300.095
300.105
300.116
300.127
300.138
300.149
300.161
300.173
300.185
300.198
300.21
300.224
300.237
300.251
300.265
300.279
300.293
300.308
300.323
300.338
300.353
300.369
300.385
300.4
300.417
300.433
300.449
300.466
300.483
300.499
300.516
300.533
300.55
300.567
300.585
300.602
300.619
300.636
300.654
300.671
300.688
300.705
300.723
300.74
300.757
300.774
300.791
300.808
300.824
300.841
300.857
300.874
300.89
300.906
300.922
300.938
300.953
300.969
300.984
300.999
301.014
301.029
301.043
301.058
301.072
301.086
301.1
301.113
301.127
301.14
300.003
300.01
300.017
300.025
300.032
300.04
300.049
300.057
300.066
300.075
300.085
300.094
300.104
300.115
300.125
300.136
300.148
300.159
300.171
300.183
300.195
300.208
300.221
300.234
300.247
300.261
300.275
300.289
300.303
300.318
300.333
300.348
300.363
300.378
300.394
300.409
300.425
300.441
300.457
300.473
300.489
300.506
300.522
300.538
300.555
300.571
300.588
300.604
300.621
300.637
300.654
300.67
300.687
300.703
300.719
300.735
300.752
300.768
300.784
300.799
300.815
300.831
300.846
300.862
300.877
300.892
300.907
300.922
300.936
300.951
300.965
300.979
300.993
301.007
301.02
301.034
301.047
301.06
301.073
301.085
301.098
300.003
300.01
300.017
300.025
300.032
300.04
300.048
300.057
300.066
300.075
300.084
300.094
300.104
300.114
300.124
300.135
300.146
300.157
300.169
300.181
300.193
300.206
300.218
300.231
300.244
300.258
300.271
300.285
300.299
300.313
300.328
300.342
300.357
300.372
300.387
300.402
300.417
300.433
300.448
300.464
300.479
300.495
300.511
300.527
300.542
300.558
300.574
300.59
300.606
300.622
300.637
300.653
300.669
300.684
300.7
300.715
300.731
300.746
300.761
300.776
300.791
300.806
300.821
300.835
300.85
300.864
300.878
300.892
300.906
300.92
300.933
300.947
300.96
300.973
300.986
300.999
301.011
301.023
301.036
301.048
301.059
300.003
300.01
300.017
300.024
300.032
300.04
300.048
300.056
300.065
300.074
300.083
300.093
300.103
300.113
300.123
300.134
300.145
300.156
300.167
300.179
300.191
300.203
300.216
300.228
300.241
300.254
300.268
300.281
300.295
300.309
300.323
300.337
300.351
300.366
300.38
300.395
300.41
300.425
300.44
300.455
300.47
300.485
300.5
300.516
300.531
300.546
300.561
300.577
300.592
300.607
300.622
300.637
300.652
300.667
300.682
300.697
300.712
300.726
300.741
300.755
300.769
300.783
300.798
300.811
300.825
300.839
300.852
300.866
300.879
300.892
300.905
300.917
300.93
300.942
300.955
300.967
300.979
300.991
301.002
301.014
301.025
300.003
300.01
300.017
300.024
300.032
300.039
300.047
300.056
300.064
300.073
300.082
300.092
300.102
300.112
300.122
300.132
300.143
300.154
300.165
300.177
300.189
300.201
300.213
300.225
300.238
300.251
300.264
300.277
300.291
300.304
300.318
300.332
300.346
300.36
300.374
300.389
300.403
300.418
300.432
300.447
300.461
300.476
300.491
300.506
300.52
300.535
300.55
300.564
300.579
300.594
300.608
300.623
300.637
300.652
300.666
300.68
300.694
300.708
300.722
300.736
300.75
300.763
300.777
300.79
300.803
300.816
300.829
300.842
300.855
300.867
300.879
300.892
300.904
300.916
300.927
300.939
300.95
300.962
300.973
300.984
300.994
300.003
300.01
300.017
300.024
300.031
300.039
300.047
300.055
300.064
300.073
300.082
300.091
300.101
300.11
300.121
300.131
300.142
300.153
300.164
300.175
300.187
300.199
300.211
300.223
300.235
300.248
300.261
300.274
300.287
300.3
300.314
300.327
300.341
300.355
300.369
300.383
300.397
300.411
300.425
300.439
300.454
300.468
300.482
300.496
300.511
300.525
300.539
300.554
300.568
300.582
300.596
300.61
300.624
300.638
300.652
300.666
300.679
300.693
300.706
300.719
300.733
300.746
300.759
300.772
300.784
300.797
300.809
300.822
300.834
300.846
300.858
300.869
300.881
300.892
300.904
300.915
300.926
300.937
300.947
300.958
300.968
300.003
300.01
300.017
300.024
300.031
300.039
300.047
300.055
300.063
300.072
300.081
300.09
300.1
300.109
300.12
300.13
300.14
300.151
300.162
300.173
300.185
300.197
300.208
300.221
300.233
300.245
300.258
300.271
300.284
300.297
300.31
300.323
300.337
300.35
300.364
300.378
300.391
300.405
300.419
300.433
300.447
300.461
300.475
300.489
300.503
300.517
300.531
300.544
300.558
300.572
300.586
300.599
300.613
300.626
300.64
300.653
300.666
300.68
300.693
300.706
300.718
300.731
300.744
300.756
300.768
300.781
300.793
300.805
300.816
300.828
300.84
300.851
300.862
300.873
300.884
300.895
300.906
300.916
300.926
300.937
300.947
300.003
300.01
300.016
300.024
300.031
300.038
300.046
300.054
300.063
300.071
300.08
300.089
300.099
300.109
300.119
300.129
300.139
300.15
300.161
300.172
300.183
300.195
300.207
300.219
300.231
300.243
300.255
300.268
300.281
300.294
300.307
300.32
300.333
300.346
300.36
300.373
300.387
300.4
300.414
300.428
300.441
300.455
300.469
300.482
300.496
300.51
300.523
300.537
300.55
300.564
300.577
300.591
300.604
300.617
300.63
300.643
300.656
300.669
300.682
300.694
300.707
300.719
300.732
300.744
300.756
300.768
300.779
300.791
300.803
300.814
300.825
300.836
300.847
300.858
300.869
300.879
300.89
300.9
300.91
300.92
300.93
300.003
300.01
300.016
300.023
300.031
300.038
300.046
300.054
300.062
300.071
300.08
300.089
300.098
300.108
300.118
300.128
300.138
300.149
300.16
300.171
300.182
300.193
300.205
300.217
300.229
300.241
300.253
300.266
300.278
300.291
300.304
300.317
300.33
300.343
300.357
300.37
300.383
300.397
300.41
300.424
300.437
300.451
300.464
300.478
300.491
300.504
300.518
300.531
300.545
300.558
300.571
300.584
300.597
300.61
300.623
300.636
300.649
300.661
300.674
300.686
300.698
300.711
300.723
300.735
300.746
300.758
300.77
300.781
300.792
300.804
300.815
300.826
300.836
300.847
300.857
300.868
300.878
300.888
300.898
300.908
300.917
300.003
300.01
300.016
300.023
300.03
300.038
300.046
300.054
300.062
300.071
300.079
300.088
300.098
300.107
300.117
300.127
300.137
300.148
300.159
300.17
300.181
300.192
300.204
300.216
300.228
300.24
300.252
300.264
300.277
300.29
300.302
300.315
300.328
300.341
300.354
300.368
300.381
300.394
300.407
300.421
300.434
300.447
300.461
300.474
300.488
300.501
300.514
300.527
300.541
300.554
300.567
300.58
300.593
300.606
300.618
300.631
300.644
300.656
300.668
300.681
300.693
300.705
300.717
300.729
300.74
300.752
300.763
300.775
300.786
300.797
300.808
300.818
300.829
300.84
300.85
300.86
300.87
300.88
300.89
300.9
300.909
300.003
300.01
300.016
300.023
300.03
300.038
300.046
300.054
300.062
300.07
300.079
300.088
300.097
300.107
300.117
300.127
300.137
300.148
300.158
300.169
300.18
300.192
300.203
300.215
300.227
300.239
300.251
300.263
300.276
300.288
300.301
300.314
300.327
300.34
300.353
300.366
300.379
300.393
300.406
300.419
300.432
300.446
300.459
300.472
300.486
300.499
300.512
300.525
300.538
300.551
300.564
300.577
300.59
300.603
300.616
300.628
300.641
300.653
300.665
300.678
300.69
300.702
300.714
300.725
300.737
300.748
300.76
300.771
300.782
300.793
300.804
300.815
300.825
300.836
300.846
300.856
300.866
300.876
300.886
300.895
300.905
300.003
300.01
300.016
300.023
300.03
300.038
300.045
300.053
300.062
300.07
300.079
300.088
300.097
300.107
300.117
300.127
300.137
300.147
300.158
300.169
300.18
300.191
300.203
300.215
300.226
300.238
300.251
300.263
300.275
300.288
300.301
300.314
300.326
300.339
300.352
300.366
300.379
300.392
300.405
300.418
300.432
300.445
300.458
300.472
300.485
300.498
300.511
300.524
300.537
300.55
300.563
300.576
300.589
300.602
300.615
300.627
300.64
300.652
300.664
300.677
300.689
300.701
300.712
300.724
300.736
300.747
300.758
300.77
300.781
300.792
300.803
300.813
300.824
300.834
300.844
300.855
300.865
300.874
300.884
300.894
300.903
303.023
303.152
303.23
303.302
303.365
303.417
303.452
303.492
303.532
303.569
303.6
303.634
303.669
303.703
303.737
303.77
303.801
303.829
303.858
303.888
303.917
303.946
303.976
304.005
304.034
304.063
304.09
304.118
304.146
304.173
304.2
304.227
304.253
304.28
304.306
304.331
304.357
304.382
304.407
304.432
304.457
304.48
304.506
304.533
304.56
304.585
304.608
304.633
304.659
304.685
304.709
304.732
304.756
304.781
304.806
304.832
304.858
304.884
304.909
304.933
304.954
304.977
305.001
305.025
305.05
305.075
305.099
305.124
305.148
305.172
305.197
305.22
305.244
305.267
305.291
305.315
305.338
305.361
305.383
305.409
305.437
305.462
305.486
305.509
305.531
305.552
305.576
305.603
305.628
305.65
305.67
305.694
305.721
305.744
305.769
305.797
305.822
305.844
305.87
305.894
305.915
305.94
305.962
305.986
306.012
306.04
306.065
306.085
306.109
306.129
306.153
306.179
306.206
306.233
306.257
306.276
306.3
306.326
306.352
306.375
306.392
306.414
306.438
306.461
306.483
306.5
306.52
306.54
306.561
306.581
306.6
306.618
306.635
306.651
306.665
306.679
306.69
306.701
306.71
306.717
306.723
306.726
306.728
306.727
306.724
306.719
306.711
306.7
306.685
306.667
306.642
306.615
306.586
306.551
306.511
306.465
306.413
306.324
306.242
306.138
306.002
302.922
303.036
303.124
303.199
303.265
303.32
303.366
303.41
303.451
303.491
303.527
303.563
303.599
303.634
303.669
303.702
303.734
303.765
303.795
303.826
303.856
303.886
303.916
303.945
303.975
304.004
304.032
304.061
304.089
304.116
304.144
304.171
304.198
304.225
304.251
304.277
304.303
304.329
304.354
304.38
304.405
304.43
304.455
304.482
304.508
304.533
304.558
304.583
304.609
304.635
304.659
304.683
304.708
304.733
304.758
304.784
304.81
304.835
304.861
304.885
304.907
304.931
304.955
304.979
305.004
305.029
305.053
305.078
305.103
305.127
305.151
305.175
305.199
305.223
305.247
305.271
305.294
305.318
305.341
305.367
305.393
305.419
305.443
305.466
305.489
305.511
305.535
305.561
305.586
305.609
305.631
305.655
305.681
305.705
305.73
305.757
305.782
305.805
305.831
305.855
305.878
305.902
305.925
305.949
305.975
306.002
306.027
306.049
306.073
306.094
306.118
306.144
306.171
306.197
306.222
306.243
306.267
306.292
306.317
306.34
306.36
306.382
306.405
306.428
306.451
306.469
306.489
306.509
306.53
306.55
306.569
306.588
306.605
306.621
306.636
306.649
306.662
306.672
306.681
306.689
306.695
306.698
306.7
306.7
306.697
306.691
306.683
306.672
306.658
306.639
306.615
306.587
306.557
306.522
306.481
306.433
306.377
306.291
306.205
306.095
305.946
302.84
302.939
303.025
303.101
303.167
303.225
303.277
303.324
303.369
303.41
303.45
303.488
303.525
303.562
303.597
303.632
303.665
303.697
303.729
303.76
303.791
303.822
303.852
303.882
303.912
303.942
303.971
304
304.028
304.056
304.084
304.112
304.139
304.166
304.193
304.219
304.246
304.272
304.298
304.324
304.349
304.375
304.401
304.427
304.453