/*--------------------------------*- C++ -*----------------------------------*\
| =========                 |                                                 |
| \\      /  F ield         | OpenFOAM: The Open Source CFD Toolbox           |
|  \\    /   O peration     | Version:  2106                                  |
|   \\  /    A nd           | Website:  www.openfoam.com                      |
|    \\/     M anipulation  |                                                 |
\*---------------------------------------------------------------------------*/
FoamFile
{
    version     2.0;
    format      ascii;
    arch        "LSB;label=32;scalar=64";
    class       volVectorField;
    location    "8.4";
    object      U;
}
// * * * * * * * * * * * * * * * * * * * * * * * * * * * * * * * * * * * * * //

dimensions      [0 1 -1 0 0 0 0];

internalField   nonuniform List<vector> 
12013
(
(0.100039 -1.08914e-05 0)
(0.100199 -2.01608e-05 0)
(0.100458 -2.87773e-05 0)
(0.100794 -3.6741e-05 0)
(0.101199 -4.42375e-05 0)
(0.101667 -5.13715e-05 0)
(0.102193 -5.82091e-05 0)
(0.102771 -6.48036e-05 0)
(0.103397 -7.11947e-05 0)
(0.104067 -7.74136e-05 0)
(0.104778 -8.34853e-05 0)
(0.105527 -8.94295e-05 0)
(0.106311 -9.52627e-05 0)
(0.107127 -0.000100998 0)
(0.107974 -0.000106646 0)
(0.108848 -0.000112216 0)
(0.109749 -0.000117713 0)
(0.110673 -0.000123143 0)
(0.11162 -0.000128511 0)
(0.112587 -0.000133818 0)
(0.113573 -0.000139067 0)
(0.114576 -0.000144257 0)
(0.115596 -0.00014939 0)
(0.11663 -0.000154463 0)
(0.117677 -0.000159476 0)
(0.118737 -0.000164425 0)
(0.119806 -0.000169309 0)
(0.120886 -0.000174122 0)
(0.121973 -0.000178862 0)
(0.123067 -0.000183522 0)
(0.124167 -0.000188097 0)
(0.125272 -0.000192581 0)
(0.12638 -0.000196966 0)
(0.12749 -0.000201245 0)
(0.128602 -0.000205408 0)
(0.129714 -0.000209447 0)
(0.130825 -0.000213349 0)
(0.131934 -0.000217105 0)
(0.13304 -0.000220699 0)
(0.134142 -0.000224118 0)
(0.135238 -0.000227347 0)
(0.136328 -0.000230366 0)
(0.13741 -0.000233156 0)
(0.138484 -0.000235695 0)
(0.139547 -0.000237958 0)
(0.140599 -0.000239918 0)
(0.141639 -0.000241542 0)
(0.142665 -0.000242794 0)
(0.143675 -0.000243635 0)
(0.144669 -0.000244018 0)
(0.145644 -0.00024389 0)
(0.146599 -0.00024319 0)
(0.147533 -0.000241846 0)
(0.148442 -0.000239777 0)
(0.149326 -0.000236886 0)
(0.150181 -0.000233058 0)
(0.151005 -0.00022816 0)
(0.151795 -0.00022203 0)
(0.152548 -0.000214474 0)
(0.15326 -0.000205257 0)
(0.153927 -0.000194093 0)
(0.154543 -0.000180626 0)
(0.155103 -0.000164414 0)
(0.1556 -0.000144896 0)
(0.156025 -0.000121361 0)
(0.156369 -9.2884e-05 0)
(0.15662 -5.82501e-05 0)
(0.156761 -1.58383e-05 0)
(0.156774 3.65702e-05 0)
(0.156634 0.000102126 0)
(0.156309 0.000185338 0)
(0.155755 0.00029284 0)
(0.154913 0.000434707 0)
(0.153696 0.000626739 0)
(0.151983 0.000894595 0)
(0.149587 0.00128143 0)
(0.146223 0.00186256 0)
(0.141411 0.00277757 0)
(0.134351 0.00432869 0)
(0.123933 0.00740707 0)
(0.111967 0.0162153 0)
(0.100036 -3.32542e-05 0)
(0.100195 -6.18117e-05 0)
(0.100453 -8.82745e-05 0)
(0.100788 -0.000112715 0)
(0.101192 -0.000135722 0)
(0.10166 -0.000157615 0)
(0.102184 -0.000178596 0)
(0.102761 -0.000198829 0)
(0.103386 -0.000218436 0)
(0.104056 -0.000237515 0)
(0.104766 -0.00025614 0)
(0.105513 -0.000274373 0)
(0.106296 -0.000292265 0)
(0.107111 -0.000309856 0)
(0.107957 -0.000327177 0)
(0.10883 -0.000344256 0)
(0.109729 -0.000361113 0)
(0.110652 -0.000377765 0)
(0.111597 -0.000394222 0)
(0.112563 -0.000410493 0)
(0.113548 -0.000426583 0)
(0.11455 -0.000442495 0)
(0.115568 -0.000458227 0)
(0.1166 -0.000473778 0)
(0.117646 -0.000489141 0)
(0.118703 -0.00050431 0)
(0.119772 -0.000519276 0)
(0.120849 -0.000534026 0)
(0.121934 -0.000548548 0)
(0.123027 -0.000562826 0)
(0.124125 -0.000576842 0)
(0.125228 -0.000590577 0)
(0.126334 -0.000604009 0)
(0.127442 -0.000617114 0)
(0.128552 -0.000629865 0)
(0.129662 -0.000642232 0)
(0.130771 -0.000654181 0)
(0.131877 -0.000665678 0)
(0.132981 -0.000676682 0)
(0.13408 -0.000687147 0)
(0.135174 -0.000697027 0)
(0.136262 -0.000706264 0)
(0.137341 -0.0007148 0)
(0.138412 -0.000722567 0)
(0.139473 -0.000729487 0)
(0.140523 -0.000735475 0)
(0.14156 -0.000740436 0)
(0.142583 -0.000744261 0)
(0.143591 -0.000746825 0)
(0.144582 -0.000747986 0)
(0.145554 -0.000747584 0)
(0.146507 -0.000745431 0)
(0.147438 -0.000741311 0)
(0.148344 -0.000734973 0)
(0.149226 -0.000726123 0)
(0.150078 -0.000714414 0)
(0.1509 -0.000699437 0)
(0.151689 -0.000680702 0)
(0.15244 -0.000657621 0)
(0.153151 -0.000629482 0)
(0.153817 -0.000595415 0)
(0.154433 -0.000554348 0)
(0.154994 -0.000504944 0)
(0.155493 -0.000445522 0)
(0.155922 -0.000373938 0)
(0.156272 -0.000287425 0)
(0.156532 -0.000182363 0)
(0.156686 -5.39377e-05 0)
(0.156718 0.00010437 0)
(0.156606 0.000301671 0)
(0.156321 0.000550896 0)
(0.155826 0.000870803 0)
(0.155073 0.00128934 0)
(0.153995 0.00184927 0)
(0.152504 0.0026178 0)
(0.15048 0.00370312 0)
(0.147758 0.00528217 0)
(0.144113 0.0076471 0)
(0.139272 0.0112844 0)
(0.133248 0.0169155 0)
(0.128359 0.0249422 0)
(0.100033 -5.65216e-05 0)
(0.10019 -0.000106023 0)
(0.100446 -0.000151601 0)
(0.100779 -0.000193682 0)
(0.101181 -0.000233288 0)
(0.101646 -0.000270967 0)
(0.102169 -0.000307073 0)
(0.102744 -0.000341887 0)
(0.103367 -0.000375623 0)
(0.104034 -0.000408444 0)
(0.104741 -0.000440484 0)
(0.105487 -0.000471849 0)
(0.106267 -0.000502623 0)
(0.10708 -0.000532877 0)
(0.107923 -0.000562667 0)
(0.108793 -0.000592037 0)
(0.10969 -0.000621024 0)
(0.11061 -0.000649655 0)
(0.111553 -0.00067795 0)
(0.112515 -0.000705923 0)
(0.113497 -0.000733583 0)
(0.114496 -0.000760935 0)
(0.115511 -0.000787976 0)
(0.116541 -0.000814702 0)
(0.117583 -0.000841104 0)
(0.118637 -0.00086717 0)
(0.119702 -0.000892883 0)
(0.120775 -0.000918224 0)
(0.121857 -0.000943169 0)
(0.122946 -0.000967692 0)
(0.12404 -0.000991764 0)
(0.125139 -0.00101535 0)
(0.126241 -0.00103841 0)
(0.127345 -0.00106091 0)
(0.12845 -0.00108279 0)
(0.129556 -0.00110401 0)
(0.13066 -0.00112452 0)
(0.131762 -0.00114424 0)
(0.132861 -0.00116311 0)
(0.133956 -0.00118105 0)
(0.135045 -0.00119798 0)
(0.136127 -0.00121381 0)
(0.137202 -0.00122843 0)
(0.138268 -0.00124172 0)
(0.139323 -0.00125356 0)
(0.140367 -0.0012638 0)
(0.141399 -0.00127227 0)
(0.142417 -0.00127878 0)
(0.143419 -0.00128314 0)
(0.144405 -0.00128509 0)
(0.145372 -0.00128435 0)
(0.146319 -0.00128062 0)
(0.147244 -0.00127353 0)
(0.148146 -0.00126264 0)
(0.149022 -0.00124746 0)
(0.14987 -0.0012274 0)
(0.150687 -0.00120178 0)
(0.151471 -0.00116976 0)
(0.152219 -0.00113037 0)
(0.152927 -0.0010824 0)
(0.153591 -0.0010244 0)
(0.154207 -0.000954605 0)
(0.154769 -0.000870786 0)
(0.155271 -0.000770181 0)
(0.155707 -0.000649281 0)
(0.156067 -0.000503595 0)
(0.156341 -0.000327292 0)
(0.156518 -0.000112711 0)
(0.156583 0.000150363 0)
(0.156518 0.000475886 0)
(0.156301 0.000883253 0)
(0.155905 0.00139982 0)
(0.155298 0.00206485 0)
(0.154441 0.00293569 0)
(0.153291 0.00409723 0)
(0.151802 0.00567585 0)
(0.14994 0.00785805 0)
(0.147713 0.0109097 0)
(0.145233 0.0151802 0)
(0.142933 0.0209764 0)
(0.142093 0.0277821 0)
(0.10003 -8.04917e-05 0)
(0.100185 -0.000152673 0)
(0.100437 -0.000218685 0)
(0.100766 -0.000279666 0)
(0.101165 -0.000337037 0)
(0.101627 -0.000391599 0)
(0.102146 -0.000443873 0)
(0.102718 -0.000494269 0)
(0.103338 -0.000543096 0)
(0.104001 -0.000590595 0)
(0.104706 -0.000636957 0)
(0.105448 -0.000682337 0)
(0.106224 -0.000726859 0)
(0.107033 -0.000770623 0)
(0.107872 -0.000813711 0)
(0.108739 -0.000856188 0)
(0.109631 -0.000898107 0)
(0.110547 -0.000939506 0)
(0.111485 -0.000980415 0)
(0.112444 -0.00102085 0)
(0.113421 -0.00106084 0)
(0.114416 -0.00110037 0)
(0.115426 -0.00113945 0)
(0.11645 -0.00117806 0)
(0.117487 -0.00121621 0)
(0.118536 -0.00125386 0)
(0.119595 -0.001291 0)
(0.120664 -0.0013276 0)
(0.12174 -0.00136361 0)
(0.122823 -0.00139902 0)
(0.123911 -0.00143376 0)
(0.125003 -0.00146779 0)
(0.126099 -0.00150107 0)
(0.127197 -0.00153352 0)
(0.128296 -0.00156507 0)
(0.129395 -0.00159567 0)
(0.130492 -0.00162521 0)
(0.131587 -0.00165362 0)
(0.132679 -0.0016808 0)
(0.133766 -0.00170663 0)
(0.134848 -0.00173099 0)
(0.135923 -0.00175375 0)
(0.13699 -0.00177476 0)
(0.138048 -0.00179385 0)
(0.139096 -0.00181084 0)
(0.140132 -0.00182551 0)
(0.141155 -0.00183762 0)
(0.142165 -0.00184692 0)
(0.143159 -0.0018531 0)
(0.144137 -0.00185581 0)
(0.145096 -0.00185467 0)
(0.146035 -0.00184921 0)
(0.146952 -0.00183893 0)
(0.147846 -0.00182321 0)
(0.148715 -0.00180135 0)
(0.149556 -0.00177252 0)
(0.150367 -0.00173576 0)
(0.151145 -0.00168991 0)
(0.151888 -0.00163358 0)
(0.152592 -0.00156514 0)
(0.153254 -0.00148256 0)
(0.153869 -0.00138341 0)
(0.154433 -0.00126466 0)
(0.154941 -0.00112257 0)
(0.155386 -0.000952434 0)
(0.155762 -0.000748304 0)
(0.15606 -0.00050255 0)
(0.156271 -0.000205306 0)
(0.156384 0.000156285 0)
(0.156386 0.00059926 0)
(0.156264 0.0011466 0)
(0.156003 0.00182948 0)
(0.155589 0.00269051 0)
(0.155009 0.00378819 0)
(0.154259 0.00520257 0)
(0.153353 0.00704153 0)
(0.152339 0.00944416 0)
(0.151331 0.0125721 0)
(0.150551 0.0165653 0)
(0.15039 0.0213889 0)
(0.151411 0.0263932 0)
(0.100027 -0.000105171 0)
(0.100178 -0.000201671 0)
(0.100426 -0.000289482 0)
(0.100751 -0.00037069 0)
(0.101145 -0.000447063 0)
(0.101603 -0.00051967 0)
(0.102118 -0.000589216 0)
(0.102685 -0.000656249 0)
(0.1033 -0.000721183 0)
(0.103959 -0.000784341 0)
(0.104659 -0.000845977 0)
(0.105396 -0.000906298 0)
(0.106167 -0.000965471 0)
(0.106971 -0.00102363 0)
(0.107805 -0.00108088 0)
(0.108666 -0.00113731 0)
(0.109553 -0.00119299 0)
(0.110463 -0.00124798 0)
(0.111395 -0.0013023 0)
(0.112348 -0.00135599 0)
(0.113319 -0.00140907 0)
(0.114307 -0.00146154 0)
(0.11531 -0.0015134 0)
(0.116328 -0.00156464 0)
(0.117358 -0.00161525 0)
(0.1184 -0.00166519 0)
(0.119452 -0.00171444 0)
(0.120513 -0.00176295 0)
(0.121581 -0.0018107 0)
(0.122656 -0.00185761 0)
(0.123736 -0.00190364 0)
(0.124821 -0.00194872 0)
(0.125908 -0.00199277 0)
(0.126997 -0.00203572 0)
(0.128087 -0.00207748 0)
(0.129177 -0.00211795 0)
(0.130265 -0.00215701 0)
(0.131351 -0.00219456 0)
(0.132433 -0.00223046 0)
(0.133511 -0.00226456 0)
(0.134583 -0.0022967 0)
(0.135647 -0.00232671 0)
(0.136704 -0.00235439 0)
(0.137752 -0.00237952 0)
(0.138789 -0.00240184 0)
(0.139815 -0.0024211 0)
(0.140828 -0.00243697 0)
(0.141827 -0.00244911 0)
(0.14281 -0.00245712 0)
(0.143777 -0.00246056 0)
(0.144726 -0.0024589 0)
(0.145654 -0.00245158 0)
(0.146562 -0.00243791 0)
(0.147446 -0.00241711 0)
(0.148305 -0.00238828 0)
(0.149137 -0.00235036 0)
(0.14994 -0.00230212 0)
(0.150711 -0.00224208 0)
(0.151449 -0.00216851 0)
(0.152149 -0.00207933 0)
(0.152808 -0.00197205 0)
(0.153425 -0.00184364 0)
(0.153993 -0.00169041 0)
(0.15451 -0.00150783 0)
(0.154969 -0.00129029 0)
(0.155367 -0.00103078 0)
(0.155697 -0.000720493 0)
(0.155953 -0.000348275 0)
(0.156128 0.00010005 0)
(0.156216 0.000642423 0)
(0.156212 0.00130225 0)
(0.156111 0.00210976 0)
(0.155915 0.00310388 0)
(0.155633 0.00433421 0)
(0.155285 0.00586258 0)
(0.154917 0.00776265 0)
(0.154607 0.0101142 0)
(0.154485 0.0129846 0)
(0.154747 0.0163832 0)
(0.155643 0.0201636 0)
(0.1574 0.0238526 0)
(0.100024 -0.00013057 0)
(0.100172 -0.000252934 0)
(0.100414 -0.00036394 0)
(0.100734 -0.000466744 0)
(0.101123 -0.000563416 0)
(0.101575 -0.000655291 0)
(0.102084 -0.000743272 0)
(0.102646 -0.000828052 0)
(0.103255 -0.000910161 0)
(0.103908 -0.000990007 0)
(0.104601 -0.00106791 0)
(0.105332 -0.00114414 0)
(0.106097 -0.00121891 0)
(0.106894 -0.00129238 0)
(0.107721 -0.00136469 0)
(0.108575 -0.00143595 0)
(0.109455 -0.00150626 0)
(0.110358 -0.00157567 0)
(0.111282 -0.00164423 0)
(0.112227 -0.00171199 0)
(0.11319 -0.00177895 0)
(0.11417 -0.00184514 0)
(0.115165 -0.00191054 0)
(0.116174 -0.00197515 0)
(0.117195 -0.00203893 0)
(0.118228 -0.00210187 0)
(0.119271 -0.00216392 0)
(0.120322 -0.00222503 0)
(0.12138 -0.00228515 0)
(0.122445 -0.00234421 0)
(0.123515 -0.00240213 0)
(0.124589 -0.00245884 0)
(0.125666 -0.00251424 0)
(0.126744 -0.00256824 0)
(0.127823 -0.00262071 0)
(0.128902 -0.00267153 0)
(0.129979 -0.00272057 0)
(0.131053 -0.00276768 0)
(0.132123 -0.00281269 0)
(0.133188 -0.00285542 0)
(0.134248 -0.00289567 0)
(0.1353 -0.00293322 0)
(0.136344 -0.00296782 0)
(0.137379 -0.00299919 0)
(0.138403 -0.00302703 0)
(0.139416 -0.003051 0)
(0.140416 -0.00307071 0)
(0.141402 -0.00308573 0)
(0.142373 -0.00309557 0)
(0.143327 -0.00309969 0)
(0.144262 -0.00309746 0)
(0.145179 -0.00308815 0)
(0.146074 -0.00307095 0)
(0.146947 -0.00304491 0)
(0.147795 -0.00300895 0)
(0.148617 -0.00296178 0)
(0.149411 -0.00290194 0)
(0.150174 -0.00282768 0)
(0.150906 -0.00273695 0)
(0.151602 -0.00262734 0)
(0.152261 -0.00249594 0)
(0.152879 -0.00233931 0)
(0.153454 -0.00215326 0)
(0.153983 -0.00193276 0)
(0.154463 -0.00167164 0)
(0.154889 -0.0013624 0)
(0.155259 -0.000995775 0)
(0.155569 -0.00056039 0)
(0.155819 -4.22118e-05 0)
(0.156006 0.000575749 0)
(0.156132 0.00131442 0)
(0.156202 0.00219948 0)
(0.156228 0.00326174 0)
(0.15623 0.00453706 0)
(0.156243 0.00606528 0)
(0.156318 0.00788661 0)
(0.156533 0.0100337 0)
(0.156995 0.0125154 0)
(0.157836 0.015288 0)
(0.159195 0.0182097 0)
(0.161149 0.0209873 0)
(0.100021 -0.000156702 0)
(0.100166 -0.000306398 0)
(0.100402 -0.000442009 0)
(0.100715 -0.000567798 0)
(0.101098 -0.000686112 0)
(0.101543 -0.000798531 0)
(0.102046 -0.000906161 0)
(0.1026 -0.00100985 0)
(0.103202 -0.00111025 0)
(0.103847 -0.00120786 0)
(0.104533 -0.00130308 0)
(0.105256 -0.00139623 0)
(0.106013 -0.00148756 0)
(0.106802 -0.0015773 0)
(0.107621 -0.0016656 0)
(0.108466 -0.0017526 0)
(0.109337 -0.00183842 0)
(0.110231 -0.00192312 0)
(0.111146 -0.00200677 0)
(0.112081 -0.00208942 0)
(0.113035 -0.00217108 0)
(0.114004 -0.00225177 0)
(0.114989 -0.00233148 0)
(0.115988 -0.00241021 0)
(0.116998 -0.00248791 0)
(0.11802 -0.00256456 0)
(0.119051 -0.0026401 0)
(0.120091 -0.00271448 0)
(0.121138 -0.00278762 0)
(0.122191 -0.00285945 0)
(0.123248 -0.00292987 0)
(0.12431 -0.00299879 0)
(0.125373 -0.00306608 0)
(0.126439 -0.00313164 0)
(0.127504 -0.00319531 0)
(0.128569 -0.00325696 0)
(0.129632 -0.00331641 0)
(0.130692 -0.00337348 0)
(0.131748 -0.00342798 0)
(0.132799 -0.00347968 0)
(0.133843 -0.00352833 0)
(0.134881 -0.00357368 0)
(0.13591 -0.00361542 0)
(0.13693 -0.00365322 0)
(0.137939 -0.00368672 0)
(0.138937 -0.00371552 0)
(0.139921 -0.00373914 0)
(0.140892 -0.00375709 0)
(0.141847 -0.00376878 0)
(0.142786 -0.00377356 0)
(0.143708 -0.0037707 0)
(0.14461 -0.00375937 0)
(0.145491 -0.00373859 0)
(0.146351 -0.00370729 0)
(0.147187 -0.00366421 0)
(0.147998 -0.00360789 0)
(0.148782 -0.00353665 0)
(0.149538 -0.00344854 0)
(0.150263 -0.00334128 0)
(0.150956 -0.0032122 0)
(0.151616 -0.00305813 0)
(0.152238 -0.00287538 0)
(0.152823 -0.00265952 0)
(0.153368 -0.00240531 0)
(0.153871 -0.00210649 0)
(0.154332 -0.00175562 0)
(0.154748 -0.00134377 0)
(0.15512 -0.000860329 0)
(0.155451 -0.0002927 0)
(0.155742 0.00037383 0)
(0.156001 0.00115576 0)
(0.156238 0.00207231 0)
(0.156471 0.00314458 0)
(0.156723 0.00439446 0)
(0.157031 0.00584242 0)
(0.157441 0.00750358 0)
(0.158016 0.0093812 0)
(0.158828 0.0114565 0)
(0.159957 0.0136747 0)
(0.16147 0.0159281 0)
(0.163384 0.0180465 0)
(0.100018 -0.000183592 0)
(0.100159 -0.000362018 0)
(0.10039 -0.000523645 0)
(0.100696 -0.000673816 0)
(0.101071 -0.000815143 0)
(0.101509 -0.000949422 0)
(0.102003 -0.00107796 0)
(0.102549 -0.00120177 0)
(0.103142 -0.00132162 0)
(0.103779 -0.00143811 0)
(0.104456 -0.00155172 0)
(0.10517 -0.00166283 0)
(0.105917 -0.00177176 0)
(0.106697 -0.00187874 0)
(0.107505 -0.00198399 0)
(0.10834 -0.00208767 0)
(0.1092 -0.0021899 0)
(0.110084 -0.00229078 0)
(0.110988 -0.00239039 0)
(0.111912 -0.00248877 0)
(0.112853 -0.00258595 0)
(0.113811 -0.00268194 0)
(0.114784 -0.00277675 0)
(0.11577 -0.00287035 0)
(0.116768 -0.00296271 0)
(0.117776 -0.00305378 0)
(0.118794 -0.00314351 0)
(0.11982 -0.00323181 0)
(0.120853 -0.00331862 0)
(0.121892 -0.00340383 0)
(0.122935 -0.00348734 0)
(0.123981 -0.00356902 0)
(0.12503 -0.00364875 0)
(0.12608 -0.00372637 0)
(0.12713 -0.00380173 0)
(0.128179 -0.00387464 0)
(0.129226 -0.00394491 0)
(0.130269 -0.00401232 0)
(0.131309 -0.00407664 0)
(0.132343 -0.00413761 0)
(0.13337 -0.00419495 0)
(0.134391 -0.00424833 0)
(0.135403 -0.00429742 0)
(0.136405 -0.00434182 0)
(0.137397 -0.00438112 0)
(0.138377 -0.00441485 0)
(0.139344 -0.00444247 0)
(0.140298 -0.0044634 0)
(0.141236 -0.00447697 0)
(0.142159 -0.00448246 0)
(0.143064 -0.00447902 0)
(0.14395 -0.00446571 0)
(0.144816 -0.00444146 0)
(0.145662 -0.00440506 0)
(0.146485 -0.00435511 0)
(0.147284 -0.00429003 0)
(0.148058 -0.004208 0)
(0.148806 -0.00410692 0)
(0.149527 -0.00398437 0)
(0.150218 -0.00383754 0)
(0.150878 -0.00366319 0)
(0.151508 -0.00345755 0)
(0.152105 -0.00321623 0)
(0.152669 -0.00293413 0)
(0.153199 -0.00260532 0)
(0.153697 -0.00222294 0)
(0.154164 -0.00177908 0)
(0.154601 -0.00126467 0)
(0.155013 -0.000669432 0)
(0.155407 1.81196e-05 0)
(0.155792 0.000809796 0)
(0.15618 0.00171774 0)
(0.156591 0.00275407 0)
(0.157047 0.00392914 0)
(0.157578 0.00524947 0)
(0.158223 0.00671469 0)
(0.159024 0.00831352 0)
(0.160026 0.0100187 0)
(0.161271 0.0117817 0)
(0.162787 0.0135286 0)
(0.164571 0.0151631 0)
(0.100014 -0.00021128 0)
(0.100153 -0.000419768 0)
(0.100377 -0.000608817 0)
(0.100676 -0.000784763 0)
(0.101043 -0.000950488 0)
(0.101472 -0.00110797 0)
(0.101957 -0.00125871 0)
(0.102493 -0.00140388 0)
(0.103077 -0.00154438 0)
(0.103704 -0.00168091 0)
(0.10437 -0.00181402 0)
(0.105073 -0.00194417 0)
(0.10581 -0.00207173 0)
(0.106578 -0.00219698 0)
(0.107374 -0.00232016 0)
(0.108198 -0.00244147 0)
(0.109046 -0.00256105 0)
(0.109916 -0.00267901 0)
(0.110808 -0.00279545 0)
(0.111719 -0.00291042 0)
(0.112647 -0.00302395 0)
(0.113591 -0.00313606 0)
(0.114549 -0.00324674 0)
(0.115521 -0.00335598 0)
(0.116504 -0.00346372 0)
(0.117497 -0.00356993 0)
(0.1185 -0.00367452 0)
(0.11951 -0.00377741 0)
(0.120527 -0.00387852 0)
(0.121549 -0.00397771 0)
(0.122576 -0.00407488 0)
(0.123605 -0.00416988 0)
(0.124637 -0.00426255 0)
(0.125669 -0.00435272 0)
(0.126701 -0.0044402 0)
(0.127732 -0.0045248 0)
(0.12876 -0.00460627 0)
(0.129785 -0.00468437 0)
(0.130806 -0.00475884 0)
(0.131821 -0.00482936 0)
(0.13283 -0.00489563 0)
(0.133831 -0.00495727 0)
(0.134823 -0.00501389 0)
(0.135806 -0.00506506 0)
(0.136779 -0.0051103 0)
(0.13774 -0.00514907 0)
(0.138688 -0.00518079 0)
(0.139622 -0.00520479 0)
(0.140542 -0.00522036 0)
(0.141446 -0.00522666 0)
(0.142333 -0.00522279 0)
(0.143203 -0.00520771 0)
(0.144053 -0.00518027 0)
(0.144883 -0.00513917 0)
(0.145693 -0.00508292 0)
(0.14648 -0.00500987 0)
(0.147244 -0.00491811 0)
(0.147985 -0.00480549 0)
(0.1487 -0.00466955 0)
(0.14939 -0.00450752 0)
(0.150054 -0.0043162 0)
(0.150692 -0.00409199 0)
(0.151303 -0.00383077 0)
(0.151888 -0.00352791 0)
(0.152448 -0.00317818 0)
(0.152985 -0.00277572 0)
(0.153501 -0.00231408 0)
(0.154002 -0.00178622 0)
(0.154492 -0.00118462 0)
(0.15498 -0.00050144 0)
(0.155475 0.000271335 0)
(0.155992 0.00113938 0)
(0.156545 0.00210762 0)
(0.157155 0.0031784 0)
(0.157844 0.00434971 0)
(0.15864 0.00561349 0)
(0.159569 0.00695355 0)
(0.160656 0.00834367 0)
(0.161922 0.00974637 0)
(0.163374 0.0111135 0)
(0.165004 0.0123905 0)
(0.100011 -0.000239809 0)
(0.100146 -0.000479633 0)
(0.100364 -0.0006975 0)
(0.100655 -0.000900602 0)
(0.101013 -0.00109211 0)
(0.101433 -0.00127416 0)
(0.101908 -0.00144842 0)
(0.102434 -0.00161622 0)
(0.103006 -0.00177859 0)
(0.103621 -0.00193633 0)
(0.104276 -0.00209009 0)
(0.104967 -0.00224039 0)
(0.105691 -0.00238764 0)
(0.106446 -0.00253219 0)
(0.10723 -0.00267431 0)
(0.10804 -0.00281422 0)
(0.108874 -0.00295209 0)
(0.10973 -0.00308806 0)
(0.110607 -0.00322222 0)
(0.111503 -0.00335464 0)
(0.112415 -0.00348535 0)
(0.113344 -0.00361439 0)
(0.114286 -0.00374173 0)
(0.115241 -0.00386735 0)
(0.116208 -0.00399122 0)
(0.117184 -0.00411325 0)
(0.118169 -0.00423338 0)
(0.119162 -0.00435151 0)
(0.12016 -0.00446752 0)
(0.121164 -0.00458128 0)
(0.122172 -0.00469266 0)
(0.123182 -0.00480149 0)
(0.124194 -0.0049076 0)
(0.125207 -0.00501077 0)
(0.126219 -0.00511081 0)
(0.127229 -0.00520748 0)
(0.128237 -0.00530051 0)
(0.129242 -0.00538963 0)
(0.130241 -0.00547454 0)
(0.131235 -0.00555488 0)
(0.132223 -0.00563031 0)
(0.133203 -0.00570041 0)
(0.134174 -0.00576476 0)
(0.135136 -0.00582286 0)
(0.136087 -0.00587418 0)
(0.137026 -0.00591814 0)
(0.137954 -0.0059541 0)
(0.138867 -0.00598134 0)
(0.139767 -0.00599908 0)
(0.140651 -0.00600643 0)
(0.14152 -0.00600242 0)
(0.142371 -0.00598596 0)
(0.143204 -0.00595585 0)
(0.144019 -0.00591074 0)
(0.144815 -0.00584911 0)
(0.14559 -0.00576928 0)
(0.146344 -0.00566934 0)
(0.147077 -0.0055472 0)
(0.147789 -0.00540047 0)
(0.148478 -0.00522653 0)
(0.149146 -0.00502241 0)
(0.149793 -0.00478486 0)
(0.150419 -0.00451027 0)
(0.151025 -0.00419468 0)
(0.151615 -0.00383383 0)
(0.15219 -0.00342314 0)
(0.152754 -0.0029578 0)
(0.153313 -0.00243295 0)
(0.153872 -0.00184378 0)
(0.154439 -0.00118585 0)
(0.155025 -0.000455261 0)
(0.155642 0.000351195 0)
(0.156302 0.00123229 0)
(0.157019 0.00218532 0)
(0.157811 0.00320421 0)
(0.158694 0.00427832 0)
(0.159683 0.00539167 0)
(0.160791 0.00652267 0)
(0.162027 0.00764437 0)
(0.16339 0.008726 0)
(0.164869 0.00973636 0)
(0.100007 -0.000269218 0)
(0.10014 -0.000541607 0)
(0.100352 -0.000789668 0)
(0.100634 -0.0010213 0)
(0.100983 -0.00123996 0)
(0.101392 -0.00144793 0)
(0.101856 -0.00164703 0)
(0.10237 -0.00183875 0)
(0.102931 -0.00202423 0)
(0.103533 -0.00220439 0)
(0.104175 -0.00237996 0)
(0.104852 -0.00255152 0)
(0.105563 -0.00271956 0)
(0.106303 -0.00288445 0)
(0.107072 -0.00304653 0)
(0.107867 -0.00320602 0)
(0.108685 -0.00336314 0)
(0.109525 -0.00351803 0)
(0.110386 -0.00367081 0)
(0.111265 -0.00382154 0)
(0.11216 -0.00397028 0)
(0.113071 -0.00411704 0)
(0.113995 -0.00426182 0)
(0.114932 -0.00440458 0)
(0.11588 -0.00454527 0)
(0.116837 -0.00468383 0)
(0.117803 -0.00482015 0)
(0.118775 -0.00495413 0)
(0.119754 -0.00508564 0)
(0.120737 -0.00521454 0)
(0.121724 -0.00534066 0)
(0.122713 -0.00546382 0)
(0.123703 -0.00558382 0)
(0.124694 -0.00570043 0)
(0.125684 -0.00581343 0)
(0.126672 -0.00592253 0)
(0.127658 -0.00602746 0)
(0.128639 -0.0061279 0)
(0.129616 -0.00622351 0)
(0.130587 -0.00631393 0)
(0.131551 -0.00639874 0)
(0.132508 -0.00647751 0)
(0.133456 -0.00654976 0)
(0.134394 -0.00661497 0)
(0.135323 -0.00667256 0)
(0.13624 -0.0067219 0)
(0.137144 -0.00676231 0)
(0.138036 -0.00679303 0)
(0.138914 -0.00681323 0)
(0.139778 -0.006822 0)
(0.140626 -0.00681833 0)
(0.141459 -0.00680111 0)
(0.142275 -0.00676912 0)
(0.143073 -0.006721 0)
(0.143854 -0.00665528 0)
(0.144617 -0.0065703 0)
(0.145362 -0.00646425 0)
(0.146088 -0.00633516 0)
(0.146795 -0.00618085 0)
(0.147485 -0.00599895 0)
(0.148157 -0.00578687 0)
(0.148813 -0.00554186 0)
(0.149453 -0.00526096 0)
(0.15008 -0.00494105 0)
(0.150697 -0.00457894 0)
(0.151307 -0.00417139 0)
(0.151913 -0.00371526 0)
(0.152521 -0.00320766 0)
(0.153137 -0.00264615 0)
(0.153768 -0.00202897 0)
(0.154423 -0.00135534 0)
(0.15511 -0.000625577 0)
(0.155842 0.000159046 0)
(0.156628 0.000992759 0)
(0.157477 0.00186691 0)
(0.1584 0.00277119 0)
(0.159404 0.00369214 0)
(0.160496 0.00461341 0)
(0.161677 0.00551636 0)
(0.162943 0.00638146 0)
(0.164285 0.0071906 0)
(0.100003 -0.000299543 0)
(0.100134 -0.000605682 0)
(0.100339 -0.000885292 0)
(0.100613 -0.00114679 0)
(0.100952 -0.00139398 0)
(0.10135 -0.00162922 0)
(0.101802 -0.00185449 0)
(0.102304 -0.0020714 0)
(0.102851 -0.00228125 0)
(0.10344 -0.00248503 0)
(0.104067 -0.00268357 0)
(0.10473 -0.00287753 0)
(0.105424 -0.00306744 0)
(0.106149 -0.00325374 0)
(0.106901 -0.00343679 0)
(0.107679 -0.00361686 0)
(0.10848 -0.00379418 0)
(0.109303 -0.00396892 0)
(0.110145 -0.00414119 0)
(0.111005 -0.0043111 0)
(0.111882 -0.00447869 0)
(0.112773 -0.00464397 0)
(0.113677 -0.00480694 0)
(0.114594 -0.00496757 0)
(0.115521 -0.00512579 0)
(0.116457 -0.00528153 0)
(0.117401 -0.00543468 0)
(0.118352 -0.00558512 0)
(0.119308 -0.0057327 0)
(0.120269 -0.00587726 0)
(0.121232 -0.00601863 0)
(0.122198 -0.00615658 0)
(0.123165 -0.00629091 0)
(0.124132 -0.00642136 0)
(0.125098 -0.00654767 0)
(0.126062 -0.00666955 0)
(0.127023 -0.00678669 0)
(0.12798 -0.00689873 0)
(0.128931 -0.00700531 0)
(0.129877 -0.00710603 0)
(0.130817 -0.00720045 0)
(0.131748 -0.0072881 0)
(0.132671 -0.00736847 0)
(0.133585 -0.00744099 0)
(0.134489 -0.00750507 0)
(0.135381 -0.00756004 0)
(0.136262 -0.0076052 0)
(0.137131 -0.00763975 0)
(0.137987 -0.00766286 0)
(0.138829 -0.00767359 0)
(0.139656 -0.00767094 0)
(0.140469 -0.00765381 0)
(0.141267 -0.00762101 0)
(0.142049 -0.00757123 0)
(0.142815 -0.00750307 0)
(0.143565 -0.00741499 0)
(0.1443 -0.00730536 0)
(0.145019 -0.00717239 0)
(0.145722 -0.00701419 0)
(0.146411 -0.00682876 0)
(0.147087 -0.00661399 0)
(0.147751 -0.00636769 0)
(0.148404 -0.00608764 0)
(0.14905 -0.00577162 0)
(0.14969 -0.00541748 0)
(0.150328 -0.00502327 0)
(0.150968 -0.00458729 0)
(0.151615 -0.00410829 0)
(0.152274 -0.00358563 0)
(0.152951 -0.00301947 0)
(0.153653 -0.00241097 0)
(0.154387 -0.00176246 0)
(0.155159 -0.00107751 0)
(0.155978 -0.000360563 0)
(0.156851 0.000381875 0)
(0.157781 0.00113944 0)
(0.158772 0.00190036 0)
(0.159825 0.00265291 0)
(0.160939 0.00338458 0)
(0.162111 0.00408311 0)
(0.163332 0.00473799 0)
(0.0999991 -0.000330805 0)
(0.100127 -0.000671845 0)
(0.100327 -0.000984324 0)
(0.100591 -0.00127703 0)
(0.10092 -0.00155407 0)
(0.101307 -0.00181791 0)
(0.101746 -0.00207065 0)
(0.102235 -0.00231404 0)
(0.102768 -0.00254949 0)
(0.103342 -0.0027781 0)
(0.103953 -0.00300078 0)
(0.104599 -0.00321826 0)
(0.105277 -0.00343114 0)
(0.105984 -0.0036399 0)
(0.106719 -0.00384493 0)
(0.107478 -0.00404656 0)
(0.10826 -0.00424502 0)
(0.109063 -0.00444051 0)
(0.109885 -0.00463317 0)
(0.110725 -0.00482309 0)
(0.111581 -0.00501033 0)
(0.11245 -0.00519491 0)
(0.113333 -0.00537682 0)
(0.114227 -0.00555602 0)
(0.115132 -0.00573245 0)
(0.116045 -0.00590601 0)
(0.116965 -0.00607659 0)
(0.117892 -0.00624406 0)
(0.118824 -0.00640825 0)
(0.11976 -0.00656898 0)
(0.120699 -0.00672605 0)
(0.121639 -0.00687923 0)
(0.122581 -0.00702829 0)
(0.123522 -0.00717295 0)
(0.124462 -0.00731293 0)
(0.125399 -0.0074479 0)
(0.126333 -0.00757752 0)
(0.127264 -0.00770143 0)
(0.128189 -0.00781923 0)
(0.129108 -0.00793049 0)
(0.13002 -0.00803474 0)
(0.130925 -0.00813149 0)
(0.131822 -0.00822021 0)
(0.132709 -0.0083003 0)
(0.133587 -0.00837116 0)
(0.134454 -0.00843209 0)
(0.13531 -0.00848239 0)
(0.136154 -0.00852126 0)
(0.136986 -0.00854786 0)
(0.137805 -0.00856129 0)
(0.138611 -0.00856057 0)
(0.139404 -0.00854464 0)
(0.140183 -0.00851239 0)
(0.140948 -0.00846261 0)
(0.141699 -0.00839402 0)
(0.142436 -0.00830527 0)
(0.14316 -0.00819492 0)
(0.143871 -0.00806149 0)
(0.14457 -0.00790342 0)
(0.145258 -0.00771914 0)
(0.145936 -0.00750704 0)
(0.146605 -0.00726556 0)
(0.147269 -0.0069932 0)
(0.147928 -0.00668858 0)
(0.148586 -0.00635051 0)
(0.149245 -0.00597809 0)
(0.14991 -0.0055708 0)
(0.150585 -0.0051286 0)
(0.151273 -0.00465208 0)
(0.151979 -0.00414257 0)
(0.152709 -0.00360224 0)
(0.153466 -0.00303425 0)
(0.154256 -0.00244275 0)
(0.155083 -0.00183292 0)
(0.155951 -0.00121073 0)
(0.156863 -0.000582337 0)
(0.15782 4.51168e-05 0)
(0.158822 0.000662619 0)
(0.159866 0.00126057 0)
(0.160948 0.00183025 0)
(0.162061 0.00236556 0)
(0.0999947 -0.000363014 0)
(0.100121 -0.000740067 0)
(0.100314 -0.00108669 0)
(0.10057 -0.00141189 0)
(0.100887 -0.00172009 0)
(0.101262 -0.00201384 0)
(0.101689 -0.00229534 0)
(0.102163 -0.00256646 0)
(0.10268 -0.00282873 0)
(0.103238 -0.00308336 0)
(0.103833 -0.00333132 0)
(0.104461 -0.00357343 0)
(0.105121 -0.00381035 0)
(0.105809 -0.0040426 0)
(0.106524 -0.00427062 0)
(0.107263 -0.00449476 0)
(0.108025 -0.0047153 0)
(0.108807 -0.00493243 0)
(0.109607 -0.00514632 0)
(0.110424 -0.00535708 0)
(0.111257 -0.00556475 0)
(0.112104 -0.00576938 0)
(0.112963 -0.00597094 0)
(0.113833 -0.00616939 0)
(0.114712 -0.00636466 0)
(0.1156 -0.00655665 0)
(0.116495 -0.00674523 0)
(0.117396 -0.00693025 0)
(0.118302 -0.00711154 0)
(0.119211 -0.0072889 0)
(0.120123 -0.00746211 0)
(0.121036 -0.00763093 0)
(0.12195 -0.00779509 0)
(0.122863 -0.00795429 0)
(0.123775 -0.00810824 0)
(0.124684 -0.00825659 0)
(0.12559 -0.00839897 0)
(0.126492 -0.008535 0)
(0.127388 -0.00866425 0)
(0.128279 -0.00878628 0)
(0.129163 -0.00890061 0)
(0.13004 -0.00900672 0)
(0.130908 -0.00910406 0)
(0.131768 -0.00919204 0)
(0.132618 -0.00927003 0)
(0.133459 -0.00933736 0)
(0.134288 -0.00939332 0)
(0.135107 -0.00943714 0)
(0.135914 -0.009468 0)
(0.13671 -0.00948505 0)
(0.137494 -0.00948737 0)
(0.138265 -0.009474 0)
(0.139024 -0.00944392 0)
(0.139772 -0.00939606 0)
(0.140507 -0.00932934 0)
(0.141231 -0.0092426 0)
(0.141943 -0.00913468 0)
(0.142645 -0.00900439 0)
(0.143338 -0.00885058 0)
(0.144023 -0.00867209 0)
(0.1447 -0.00846786 0)
(0.145373 -0.00823688 0)
(0.146042 -0.00797832 0)
(0.146709 -0.00769152 0)
(0.147378 -0.00737609 0)
(0.148051 -0.00703195 0)
(0.148731 -0.0066594 0)
(0.149422 -0.00625921 0)
(0.150125 -0.00583269 0)
(0.150846 -0.00538176 0)
(0.151586 -0.00490898 0)
(0.15235 -0.00441758 0)
(0.153139 -0.00391149 0)
(0.153957 -0.00339526 0)
(0.154805 -0.00287404 0)
(0.155683 -0.0023534 0)
(0.156593 -0.00183903 0)
(0.157533 -0.00133649 0)
(0.158502 -0.000850443 0)
(0.159496 -0.00038531 0)
(0.160511 5.4701e-05 0)
(0.0999899 -0.000396161 0)
(0.100114 -0.000810297 0)
(0.100301 -0.00119229 0)
(0.100547 -0.00155124 0)
(0.100854 -0.00189184 0)
(0.101216 -0.00221676 0)
(0.101629 -0.00252826 0)
(0.102088 -0.00282834 0)
(0.102589 -0.00311862 0)
(0.10313 -0.00340042 0)
(0.103706 -0.00367479 0)
(0.104316 -0.00394262 0)
(0.104956 -0.00420461 0)
(0.105624 -0.00446136 0)
(0.106318 -0.00471334 0)
(0.107035 -0.00496093 0)
(0.107774 -0.00520442 0)
(0.108533 -0.00544406 0)
(0.10931 -0.00568 0)
(0.110103 -0.00591237 0)
(0.110911 -0.00614122 0)
(0.111733 -0.00636659 0)
(0.112566 -0.00658847 0)
(0.11341 -0.0068068 0)
(0.114263 -0.00702151 0)
(0.115124 -0.00723249 0)
(0.115991 -0.00743959 0)
(0.116864 -0.00764266 0)
(0.117741 -0.00784151 0)
(0.118622 -0.00803592 0)
(0.119505 -0.00822566 0)
(0.120389 -0.00841047 0)
(0.121273 -0.00859005 0)
(0.122157 -0.00876411 0)
(0.123038 -0.00893231 0)