/*--------------------------------*- C++ -*----------------------------------*\
| =========                 |                                                 |
| \\      /  F ield         | OpenFOAM: The Open Source CFD Toolbox           |
|  \\    /   O peration     | Version:  2106                                  |
|   \\  /    A nd           | Website:  www.openfoam.com                      |
|    \\/     M anipulation  |                                                 |
\*---------------------------------------------------------------------------*/
FoamFile
{
    version     2.0;
    format      ascii;
    arch        "LSB;label=32;scalar=64";
    class       surfaceScalarField;
    location    "0.2";
    object      phi;
}
// * * * * * * * * * * * * * * * * * * * * * * * * * * * * * * * * * * * * * //

dimensions      [1 0 -1 0 0 0 0];

oriented        oriented;

internalField   nonuniform List<scalar> 
23692
(
9.28788e-05
2.00776e-07
9.25534e-05
3.2536e-07
9.22551e-05
2.98364e-07
9.20491e-05
2.05969e-07
9.19094e-05
1.3972e-07
9.17929e-05
1.16469e-07
9.16747e-05
1.18246e-07
9.15468e-05
1.27885e-07
9.14096e-05
1.372e-07
9.12655e-05
1.44076e-07
9.11167e-05
1.4879e-07
9.09646e-05
1.52113e-07
9.081e-05
1.54674e-07
9.06531e-05
1.56856e-07
9.04943e-05
1.58867e-07
9.03335e-05
1.60805e-07
9.01708e-05
1.62713e-07
9.00062e-05
1.64609e-07
8.98398e-05
1.66491e-07
8.96715e-05
1.68346e-07
8.95015e-05
1.70138e-07
8.93298e-05
1.71829e-07
8.91566e-05
1.73375e-07
8.8982e-05
1.74734e-07
8.88064e-05
1.75867e-07
8.863e-05
1.76746e-07
8.84531e-05
1.7735e-07
8.82759e-05
1.77669e-07
8.80988e-05
1.77703e-07
8.79221e-05
1.7746e-07
8.7746e-05
1.76966e-07
8.75707e-05
1.7625e-07
8.73966e-05
1.75344e-07
8.72238e-05
1.74286e-07
8.70523e-05
1.7312e-07
8.68824e-05
1.71889e-07
8.67139e-05
1.70637e-07
8.6547e-05
1.69403e-07
8.63817e-05
1.68223e-07
8.62178e-05
1.67133e-07
8.60552e-05
1.66162e-07
8.58939e-05
1.65336e-07
8.57336e-05
1.6468e-07
8.55743e-05
1.64208e-07
8.54157e-05
1.63936e-07
8.52577e-05
1.63873e-07
8.51001e-05
1.64024e-07
8.49426e-05
1.64398e-07
8.4785e-05
1.65004e-07
8.46271e-05
1.65854e-07
8.44687e-05
1.66963e-07
8.43094e-05
1.68358e-07
8.4149e-05
1.70073e-07
8.39871e-05
1.72162e-07
8.38231e-05
1.74694e-07
8.36567e-05
1.77765e-07
8.34871e-05
1.81501e-07
8.33134e-05
1.86064e-07
8.31346e-05
1.91657e-07
8.29495e-05
1.98543e-07
8.27564e-05
2.07055e-07
8.25532e-05
2.17615e-07
8.23372e-05
2.30766e-07
8.21053e-05
2.47208e-07
8.18532e-05
2.67855e-07
8.15754e-05
2.93915e-07
8.12648e-05
3.27008e-07
8.09123e-05
3.69333e-07
8.05055e-05
4.23936e-07
8.00279e-05
4.95107e-07
7.94566e-05
5.89006e-07
7.876e-05
7.14649e-07
7.78928e-05
8.85483e-07
7.67893e-05
1.12192e-06
7.53525e-05
1.45546e-06
7.34361e-05
1.93524e-06
7.08169e-05
2.63818e-06
6.71504e-05
3.6856e-06
6.18889e-05
5.28078e-06
5.41082e-05
7.80003e-06
1.22375e-05
4.18902e-05
9.93938e-05
4.06346e-07
9.90528e-05
6.66375e-07
9.8736e-05
6.15176e-07
9.85146e-05
4.27377e-07
9.83627e-05
2.91624e-07
9.82358e-05
2.43292e-07
9.81079e-05
2.46208e-07
9.79703e-05
2.65437e-07
9.78233e-05
2.84211e-07
9.76693e-05
2.98129e-07
9.75104e-05
3.07705e-07
9.7348e-05
3.14479e-07
9.7183e-05
3.19714e-07
9.70157e-05
3.24185e-07
9.68462e-05
3.28309e-07
9.66748e-05
3.32286e-07
9.65013e-05
3.36203e-07
9.63259e-05
3.401e-07
9.61484e-05
3.43972e-07
9.59691e-05
3.47779e-07
9.57879e-05
3.51464e-07
9.56049e-05
3.54944e-07
9.54203e-05
3.58126e-07
9.52343e-05
3.60922e-07
9.50472e-05
3.63259e-07
9.48592e-05
3.65076e-07
9.46707e-05
3.66332e-07
9.44819e-05
3.67004e-07
9.42931e-05
3.6709e-07
9.41048e-05
3.66615e-07
9.3917e-05
3.65623e-07
9.37302e-05
3.64174e-07
9.35445e-05
3.62338e-07
9.33602e-05
3.60189e-07
9.31773e-05
3.57817e-07
9.29959e-05
3.55312e-07
9.28161e-05
3.52763e-07
9.2638e-05
3.50252e-07
9.24614e-05
3.47852e-07
9.22863e-05
3.45635e-07
9.21127e-05
3.43662e-07
9.19403e-05
3.4199e-07
9.17691e-05
3.40663e-07
9.15988e-05
3.39716e-07
9.14293e-05
3.39177e-07
9.12604e-05
3.39065e-07
9.10918e-05
3.39393e-07
9.09234e-05
3.40178e-07
9.07549e-05
3.41439e-07
9.05861e-05
3.432e-07
9.04167e-05
3.45493e-07
9.02464e-05
3.48367e-07
9.00749e-05
3.51898e-07
8.99018e-05
3.56192e-07
8.97266e-05
3.6139e-07
8.95488e-05
3.67687e-07
8.93676e-05
3.75338e-07
8.91823e-05
3.84669e-07
8.89917e-05
3.96093e-07
8.87944e-05
4.10137e-07
8.85889e-05
4.27466e-07
8.8373e-05
4.48927e-07
8.8144e-05
4.75596e-07
8.78987e-05
5.08861e-07
8.76328e-05
5.5052e-07
8.7341e-05
6.0293e-07
8.70164e-05
6.69224e-07
8.66502e-05
7.53616e-07
8.62306e-05
8.61866e-07
8.57424e-05
1.00196e-06
8.51652e-05
1.18518e-06
8.44714e-05
1.42764e-06
8.36237e-05
1.75275e-06
8.25705e-05
2.19482e-06
8.12415e-05
2.8044e-06
7.95414e-05
3.65547e-06
7.73466e-05
4.8533e-06
7.45131e-05
6.53951e-06
7.09246e-05
8.88991e-06
6.67007e-05
1.20446e-05
1.56071e-05
6.33519e-05
0.000106375
6.07493e-07
0.000106027
1.01411e-06
0.000105696
9.46233e-07
0.000105457
6.66604e-07
0.000105288
4.60279e-07
0.000105147
3.84456e-07
0.000105007
3.86556e-07
0.000104858
4.14219e-07
0.0001047
4.41897e-07
0.000104536
4.62645e-07
0.000104366
4.77031e-07
0.000104193
4.87276e-07
0.000104018
4.95234e-07
0.00010384
5.02054e-07
0.00010366
5.08358e-07
0.000103478
5.14443e-07
0.000103294
5.20442e-07
0.000103107
5.2641e-07
0.000102919
5.32339e-07
0.000102729
5.38176e-07
0.000102537
5.43821e-07
0.000102342
5.49158e-07
0.000102147
5.54043e-07
0.00010195
5.58346e-07
0.000101751
5.61949e-07
0.000101552
5.64762e-07
0.000101352
5.66723e-07
0.000101152
5.67795e-07
0.000100951
5.67977e-07
0.000100752
5.67304e-07
0.000100552
5.65842e-07
0.000100354
5.63684e-07
0.000100157
5.60933e-07
9.9961e-05
5.57708e-07
9.97666e-05
5.5414e-07
9.95738e-05
5.5037e-07
9.93825e-05
5.46529e-07
9.91929e-05
5.42743e-07
9.90049e-05
5.39126e-07
9.88184e-05
5.35786e-07
9.86334e-05
5.32817e-07
9.84496e-05
5.30305e-07
9.8267e-05
5.28318e-07
9.80854e-05
5.2691e-07
9.79046e-05
5.26122e-07
9.77244e-05
5.25982e-07
9.75446e-05
5.26513e-07
9.73649e-05
5.27739e-07
9.71851e-05
5.2969e-07
9.70051e-05
5.324e-07
9.68244e-05
5.35918e-07
9.66428e-05
5.40321e-07
9.646e-05
5.45723e-07
9.62756e-05
5.5228e-07
9.60891e-05
5.6021e-07
9.58999e-05
5.69805e-07
9.57073e-05
5.81445e-07
9.55105e-05
5.95617e-07
9.53084e-05
6.12941e-07
9.50997e-05
6.34194e-07
9.48827e-05
6.6036e-07
9.46554e-05
6.9268e-07
9.44152e-05
7.32722e-07
9.41591e-05
7.82491e-07
9.3883e-05
8.4456e-07
9.3582e-05
9.22265e-07
9.32501e-05
1.01997e-06
9.28795e-05
1.14347e-06
9.24604e-05
1.30051e-06
9.19807e-05
1.50161e-06
9.1425e-05
1.76115e-06
9.07742e-05
2.09907e-06
9.00047e-05
2.54308e-06
8.90889e-05
3.1317e-06
8.79967e-05
3.91792e-06
8.67012e-05
4.97237e-06
8.51937e-05
6.38254e-06
8.35146e-05
8.24036e-06
8.18255e-05
1.0601e-05
8.05411e-05
1.3351e-05
1.58447e-05
8.03256e-05
0.000113854
7.94886e-07
0.000113511
1.3568e-06
0.00011317
1.28664e-06
0.000112911
9.25603e-07
0.000112721
6.50402e-07
0.000112562
5.4429e-07
0.000112406
5.42244e-07
0.000112244
5.75964e-07
0.000112075
6.11191e-07
0.000111899
6.38097e-07
0.000111719
6.56995e-07
0.000111536
6.70589e-07
0.00011135
6.81235e-07
0.000111162
6.90404e-07
0.000110971
6.98903e-07
0.000110779
7.07122e-07
0.000110584
7.15232e-07
0.000110387
7.23301e-07
0.000110188
7.31322e-07
0.000109987
7.39217e-07
0.000109784
7.46862e-07
0.000109579
7.54092e-07
0.000109373
7.60722e-07
0.000109165
7.66574e-07
0.000108956
7.71492e-07
0.000108746
7.75355e-07
0.000108535
7.78078e-07
0.000108323
7.79611e-07
0.000108112
7.79955e-07
0.000107901
7.79151e-07
0.000107691
7.77291e-07
0.000107481
7.74495e-07
0.000107273
7.70901e-07
0.000107066
7.66667e-07
0.00010686
7.61969e-07
0.000106656
7.56994e-07
0.000106453
7.5192e-07
0.000106252
7.46915e-07
0.000106052
7.42131e-07
0.000105854
7.37713e-07
0.000105658
7.33791e-07
0.000105462
7.30475e-07
0.000105268
7.2786e-07
0.000105075
7.26014e-07
0.000104883
7.24993e-07
0.000104691
7.24838e-07
0.0001045
7.25575e-07
0.000104309
7.27242e-07
0.000104118
7.29872e-07
0.000103926
7.33515e-07
0.000103734
7.38237e-07
0.000103542
7.44137e-07
0.000103348
7.51368e-07
0.000103152
7.60136e-07
0.000102955
7.70731e-07
0.000102755
7.83537e-07
0.000102552
7.99052e-07
0.000102345
8.17913e-07
0.000102132
8.40922e-07
0.000101914
8.69086e-07
0.000101688
9.03664e-07
0.000101452
9.46231e-07
0.000101204
9.98762e-07
0.000100941
1.06375e-06
0.00010066
1.14434e-06
0.000100358
1.24457e-06
0.000100028
1.3696e-06
9.9666e-05
1.52612e-06
9.92646e-05
1.72287e-06
9.88162e-05
1.9713e-06
9.83124e-05
2.28652e-06
9.7745e-05
2.68848e-06
9.71069e-05
3.20341e-06
9.63958e-05
3.86532e-06
9.56195e-05
4.71692e-06
9.48064e-05
5.80836e-06
9.40219e-05
7.19013e-06
9.33923e-05
8.89319e-06
9.31323e-05
1.08843e-05
9.35316e-05
1.29752e-05
1.46749e-05
9.4725e-05
0.000121864
9.59917e-07
0.000121538
1.68286e-06
0.000121194
1.6307e-06
0.000120914
1.20523e-06
0.000120699
8.65944e-07
0.000120516
7.26796e-07
0.000120342
7.16146e-07
0.000120166
7.52401e-07
0.000119984
7.93026e-07
0.000119797
8.24934e-07
0.000119606
8.4777e-07
0.000119413
8.64439e-07
0.000119216
8.77636e-07
0.000119018
8.89083e-07
0.000118817
8.99736e-07
0.000118614
9.10062e-07
0.000118409
9.20259e-07
0.000118202
9.30415e-07
0.000117993
9.40514e-07
0.000117781
9.50457e-07
0.000117568
9.60093e-07
0.000117353
9.69217e-07
0.000117137
9.77598e-07
0.000116919
9.85019e-07
0.000116699
9.91286e-07
0.000116479
9.96247e-07
0.000116257
9.99791e-07
0.000116036
1.00187e-06
0.000115814
1.00246e-06
0.000115593
1.00163e-06
0.000115372
9.99489e-07
0.000115151
9.96174e-07
0.000114932
9.91862e-07
0.000114714
9.86747e-07
0.000114497
9.81051e-07
0.000114281
9.74998e-07
0.000114067
9.68809e-07
0.000113855
9.62692e-07
0.000113644
9.56842e-07
0.000113434
9.51436e-07
0.000113226
9.46633e-07
0.000113019
9.42573e-07
0.000112813
9.3937e-07
0.000112609
9.37113e-07
0.000112405
9.35867e-07
0.000112201
9.35678e-07
0.000111999
9.3659e-07
0.000111796
9.38641e-07
0.000111594
9.41876e-07
0.000111392
9.46351e-07
0.000111189
9.52149e-07
0.000110985
9.59395e-07
0.000110781
9.68271e-07
0.000110575
9.79034e-07
0.000110368
9.92034e-07
0.000110158
1.00774e-06
0.000109946
1.02674e-06
0.00010973
1.04981e-06
0.00010951
1.0779e-06
0.000109285
1.1122e-06
0.000109052
1.15417e-06
0.000108811
1.20563e-06
0.000108561
1.26884e-06
0.000108298
1.34657e-06
0.00010802
1.4423e-06
0.000107725
1.56036e-06
0.00010741
1.70618e-06
0.000107072
1.88657e-06
0.000106707
2.11012e-06
0.000106313
2.38764e-06
0.00010589
2.73269e-06
0.00010544
3.16213e-06
0.00010497
3.69656e-06
0.000104499
4.36029e-06
0.00010406
5.18026e-06
0.00010371
6.18235e-06
0.000103542
7.3828e-06
0.000103689
8.77104e-06
0.000104319
1.02797e-05
0.000105578
1.17407e-05
1.28451e-05
0.000107433
0.00013044
1.0965e-06
0.00013014
1.98272e-06
0.000129798
1.9725e-06
0.000129499
1.50466e-06
0.000129256
1.10915e-06
0.000129048
9.3488e-07
0.000128853
9.10612e-07
0.00012866
9.45071e-07
0.000128465
9.88281e-07
0.000128267
1.0236e-06
0.000128065
1.04953e-06
0.00012786
1.06883e-06
0.000127654
1.08433e-06
0.000127445
1.09789e-06
0.000127234
1.11059e-06
0.000127021
1.12294e-06
0.000126806
1.13515e-06
0.00012659
1.14733e-06
0.000126371
1.15945e-06
0.00012615
1.17138e-06
0.000125927
1.18296e-06
0.000125703
1.19394e-06
0.000125476
1.20405e-06
0.000125249
1.21303e-06
0.00012502
1.22066e-06
0.00012479
1.22676e-06
0.000124559
1.2312e-06
0.000124327
1.2339e-06
0.000124096
1.23486e-06
0.000123864
1.23415e-06
0.000123633
1.23187e-06
0.000123403
1.22821e-06
0.000123173
1.22337e-06
0.000122944
1.21756e-06
0.000122716
1.21105e-06
0.00012249
1.20411e-06
0.000122265
1.19698e-06
0.000122041
1.18991e-06
0.000121819
1.18314e-06
0.000121598
1.17687e-06
0.000121378
1.17129e-06
0.000121159
1.16657e-06
0.000120942
1.16282e-06
0.000120726
1.16017e-06
0.000120511
1.15867e-06
0.000120296
1.1584e-06
0.000120082
1.1594e-06
0.000119868
1.1617e-06
0.000119655
1.16537e-06
0.000119442
1.17047e-06
0.000119229
1.17709e-06
0.000119016
1.18537e-06
0.000118802
1.19553e-06
0.000118587
1.20785e-06
0.000118371
1.22275e-06
0.000118154
1.24074e-06
0.000117934
1.26251e-06
0.000117713
1.2889e-06
0.000117487
1.32098e-06
0.000117258
1.36005e-06
0.000117024
1.40768e-06
0.000116784
1.46583e-06
0.000116536
1.53684e-06
0.00011628
1.62358e-06
0.000116015
1.72951e-06
0.000115738
1.85886e-06
0.000115451
2.01675e-06
0.000115151
2.20937e-06
0.000114841
2.44416e-06
0.000114523
2.73003e-06
0.000114202
3.07741e-06
0.000113891
3.49828e-06
0.000113607
4.00582e-06
0.000113379
4.6135e-06
0.000113252
5.3331e-06
0.00011329
6.17084e-06
0.000113578
7.12064e-06
0.000114222
8.15321e-06
0.000115327
9.20112e-06
0.000116951
1.01435e-05
1.08039e-05
0.000119019
0.000139617
1.20214e-06
0.00013935
2.2501e-06
0.000139016
2.30664e-06
0.000138699
1.82122e-06
0.000138428
1.38002e-06
0.000138193
1.16982e-06
0.000137977
1.1271e-06
0.000137767
1.15512e-06
0.000137557
1.19769e-06
0.000137346
1.2345e-06
0.000137134
1.26243e-06
0.000136919
1.28375e-06
0.000136702
1.30118e-06
0.000136483
1.31664e-06
0.000136263
1.33121e-06
0.00013604
1.34543e-06
0.000135816
1.35954e-06
0.000135589
1.37363e-06
0.000135361
1.38766e-06
0.000135131
1.40149e-06
0.0001349
1.41492e-06
0.000134666
1.42768e-06
0.000134431
1.43946e-06
0.000134194
1.44998e-06
0.000133956
1.45898e-06
0.000133717
1.46624e-06
0.000133477
1.47163e-06
0.000133237
1.47507e-06
0.000132996
1.47653e-06
0.000132755
1.47609e-06
0.000132515
1.47388e-06
0.000132274
1.47009e-06
0.000132034
1.46494e-06
0.000131795
1.45868e-06
0.000131557
1.4516e-06
0.00013132
1.444e-06
0.000131084
1.43615e-06
0.00013085
1.42835e-06
0.000130616
1.42083e-06
0.000130384
1.41385e-06
0.000130153
1.40761e-06
0.000129923
1.4023e-06
0.000129694
1.39805e-06
0.000129467
1.39498e-06
0.00012924
1.39319e-06
0.000129014
1.39272e-06
0.00012879
1.39364e-06
0.000128565
1.39598e-06
0.000128342
1.3998e-06
0.000128119
1.40517e-06
0.000127896
1.4122e-06
0.000127674
1.42102e-06
0.000127452
1.43188e-06
0.00012723
1.44509e-06
0.000127007
1.46108e-06
0.000126784
1.48042e-06
0.00012656
1.50382e-06
0.000126335
1.53219e-06
0.000126109
1.56661e-06
0.00012588
1.60843e-06
0.000125649
1.65924e-06
0.000125415
1.72096e-06
0.000125178
1.79586e-06
0.000124937
1.88664e-06
0.000124693
1.99646e-06
0.000124447
2.12905e-06
0.000124199
2.28874e-06
0.000123953
2.4805e-06
0.000123712
2.70999e-06
0.000123484
2.98344e-06
0.00012328
3.30755e-06
0.000123116
3.68904e-06
0.000123014
4.134e-06
0.000123008
4.64674e-06
0.000123141
5.22787e-06
0.000123468
5.8715e-06
0.000124055
6.56117e-06
0.000124971
7.26464e-06
0.000126272
7.92853e-06
0.000127968
8.47589e-06
8.81315e-06
0.000129987
0.000149434
1.27787e-06
0.000149202
2.48253e-06
0.000148879
2.62874e-06
0.00014855
2.15084e-06
0.000148254
1.67634e-06
0.000147992
1.43113e-06
0.000147753
1.36599e-06
0.000147525
1.38316e-06
0.000147301
1.42179e-06
0.000147078
1.45796e-06
0.000146854
1.48664e-06
0.000146628
1.50922e-06
0.000146401
1.52812e-06
0.000146173
1.54514e-06
0.000145943
1.56133e-06
0.000145711
1.57724e-06
0.000145477
1.59307e-06
0.000145242
1.60892e-06
0.000145005
1.62472e-06
0.000144766
1.64032e-06
0.000144526
1.65549e-06
0.000144284
1.66993e-06
0.00014404
1.68331e-06
0.000143795
1.69531e-06
0.000143549
1.70566e-06
0.000143302
1.71411e-06
0.000143053
1.72052e-06
0.000142805
1.72479e-06
0.000142555
1.7269e-06
0.000142305
1.72693e-06
0.000142056
1.725e-06
0.000141806
1.72131e-06
0.000141557
1.71611e-06
0.000141308
1.70968e-06
0.00014106
1.7023e-06
0.000140813
1.69431e-06
0.000140566
1.686e-06
0.000140321
1.67768e-06
0.000140077
1.66963e-06
0.000139833
1.66209e-06
0.000139591
1.6553e-06
0.00013935
1.64946e-06
0.000139111
1.64471e-06
0.000138872
1.64119e-06
0.000138635
1.63897e-06
0.000138398
1.63813e-06
0.000138163
1.63871e-06
0.000137929
1.64076e-06
0.000137696
1.64432e-06
0.000137464
1.64947e-06
0.000137234
1.6563e-06
0.000137004
1.66497e-06
0.000136775
1.6757e-06
0.000136547
1.68883e-06
0.00013632
1.70479e-06
0.000136094
1.72416e-06
0.000135869
1.74763e-06
0.000135644
1.77612e-06
0.00013542
1.81067e-06
0.000135197
1.85257e-06
0.000134975
1.90332e-06
0.000134754
1.96467e-06
0.000134534
2.03862e-06
0.000134317
2.1275e-06
0.000134104
2.23392e-06
0.000133897
2.3608e-06
0.0001337
2.51137e-06
0.000133518
2.68906e-06
0.000133357
2.89744e-06
0.000133228
3.14001e-06
0.000133143
3.41986e-06
0.000133121
3.73921e-06
0.000133185
4.09868e-06
0.000133364
4.49636e-06
0.000133694
4.92646e-06
0.000134217
5.37776e-06
0.000134976
5.83179e-06
0.000136009
6.26123e-06
0.000137338
6.62914e-06
0.000138953
6.89074e-06
6.99965e-06
0.000140796
0.000159933
1.32738e-06
0.000159734
2.68082e-06
0.000159427
2.93575e-06
0.00015909
2.48868e-06
0.000158772
1.99425e-06
0.000158486
1.71676e-06
0.000158225
1.62666e-06
0.000157979
1.62925e-06
0.00015774
1.66082e-06
0.000157504
1.69421e-06
0.000157268
1.72226e-06
0.000157032
1.74525e-06
0.000156795
1.76505e-06
0.000156557
1.78323e-06
0.000156318
1.80075e-06
0.000156077
1.81809e-06
0.000155835
1.83545e-06
0.000155591
1.85287e-06
0.000155345
1.87028e-06
0.000155098
1.88749e-06
0.00015485
1.90426e-06
0.0001546
1.92026e-06
0.000154348
1.93514e-06
0.000154095
1.94857e-06
0.000153841
1.96023e-06
0.000153586
1.96989e-06
0.00015333
1.97738e-06
0.000153073
1.98259e-06
0.000152815
1.9855e-06
0.000152557
1.98617e-06
0.000152299
1.98475e-06
0.00015204
1.98143e-06
0.000151782
1.97646e-06
0.000151524
1.97013e-06
0.000151266
1.96275e-06
0.000151009
1.95464e-06
0.000150753
1.94612e-06
0.000150497
1.93752e-06
0.000150242
1.9291e-06
0.000149988
1.92115e-06
0.000149736
1.9139e-06
0.000149484
1.90755e-06
0.000149234
1.90226e-06
0.000148985
1.89815e-06
0.000148738
1.89532e-06
0.000148492
1.89382e-06
0.000148247
1.8937e-06
0.000148004
1.89499e-06
0.000147763
1.89774e-06
0.000147524
1.90198e-06
0.000147287
1.90782e-06
0.000147051
1.9154e-06
0.000146818
1.92492e-06
0.000146587
1.93671e-06
0.000146358
1.95118e-06
0.000146132
1.96885e-06
0.000145909
1.99041e-06
0.000145689
2.01667e-06
0.000145472
2.0486e-06
0.00014526
2.08732e-06
0.000145052
2.13414e-06
0.00014485
2.19049e-06
0.000144655
2.25801e-06
0.000144469
2.33846e-06
0.000144295
2.43374e-06
0.000144137
2.54583e-06
0.000143998
2.6767e-06
0.000143887
2.82822e-06
0.000143811
3.002e-06
0.00014378
3.19912e-06
0.00014381
3.41982e-06
0.000143915
3.6631e-06
0.000144118
3.92616e-06
0.000144441
4.2038e-06
0.00014491
4.48775e-06
0.000145553
4.76606e-06
0.000146393
5.02273e-06
0.000147448
5.23772e-06
0.00014872
5.38798e-06
0.000150193
5.44962e-06
5.40191e-06
0.000151822
0.00017116
1.35577e-06
0.000170993
2.84804e-06
0.000170702
3.22596e-06
0.000170361
2.82996e-06
0.000170026
2.32901e-06
0.000169719
2.02367e-06
0.000169438
1.90761e-06
0.000169175
1.89288e-06
0.000168921
1.91473e-06
0.000168672
1.94333e-06
0.000168425
1.96937e-06
0.000168178
1.99182e-06
0.000167931
2.01188e-06
0.000167684
2.03077e-06
0.000167435
2.04926e-06
0.000167186
2.06776e-06
0.000166935
2.0864e-06
0.000166683
2.10519e-06
0.000166429
2.12401e-06
0.000166174
2.14267e-06
0.000165917
2.16089e-06
0.00016566
2.17832e-06
0.0001654
2.1946e-06
0.00016514
2.20938e-06
0.000164878
2.22233e-06
0.000164616
2.23321e-06
0.000164352
2.24183e-06
0.000164087
2.24807e-06
0.000163822
2.25193e-06
0.000163556
2.25344e-06
0.000163289
2.25275e-06
0.000163023
2.25004e-06
0.000162756
2.24557e-06
0.000162489
2.23962e-06
0.000162222
2.2325e-06
0.000161955
2.22452e-06
0.000161689
2.21603e-06
0.000161424
2.20732e-06
0.000161159
2.19869e-06
0.000160896
2.19041e-06
0.000160633
2.18272e-06
0.000160372
2.17582e-06
0.000160112
2.16986e-06
0.000159854
2.16497e-06
0.000159597
2.16122e-06
0.000159342
2.15867e-06
0.00015909
2.15735e-06
0.00015884
2.15727e-06
0.000158592
2.15845e-06
0.000158347
2.16092e-06
0.000158105
2.16475e-06
0.000157866
2.17005e-06
0.000157631
2.177e-06
0.000157399
2.18588e-06
0.000157172
2.19704e-06
0.00015695
2.21095e-06
0.000156733
2.22819e-06
0.000156521
2.24945e-06
0.000156317
2.27554e-06
0.00015612
2.30736e-06
0.000155933
2.34591e-06
0.000155756
2.39227e-06
0.000155592
2.44757e-06
0.000155444
2.51297e-06
0.000155316
2.58957e-06
0.000155211
2.6784e-06
0.000155136
2.78027e-06
0.000155098
2.89568e-06
0.000155105
3.02461e-06
0.000155169
3.16638e-06
0.0001553
3.31935e-06
0.000155513
3.48065e-06
0.000155825
3.64588e-06
0.000156252
3.80883e-06
0.000156811
3.96128e-06
0.000157517
4.09297e-06
0.00015838
4.1919e-06
0.000159406
4.24495e-06
0.000160588
4.23912e-06
0.000161907
4.16327e-06
4.01017e-06
0.000163332
0.000183166
1.36846e-06
0.000183026
2.98857e-06
0.000182753
3.49892e-06
0.000182412
3.17047e-06
0.000182066
2.67576e-06
0.000181741
2.34821e-06
0.000181442
2.20677e-06
0.000181162
2.17309e-06
0.000180893
2.18318e-06
0.000180631
2.20521e-06
0.000180373
2.2279e-06
0.000180116
2.24887e-06
0.000179859
2.26851e-06
0.000179602
2.28759e-06
0.000179345
2.30667e-06
0.000179087
2.32601e-06
0.000178828
2.34567e-06
0.000178567
2.3656e-06
0.000178306
2.38564e-06
0.000178043
2.40557e-06
0.000177779
2.42509e-06
0.000177514
2.44383e-06
0.000177247
2.4614e-06
0.00017698
2.47746e-06
0.000176711
2.49166e-06
0.000176441
2.50376e-06
0.00017617
2.51356e-06
0.000175898
2.52094e-06
0.000175625
2.52587e-06
0.000175351
2.52839e-06
0.000175077
2.52863e-06
0.000174802
2.52676e-06
0.000174527
2.52302e-06
0.000174252
2.51768e-06
0.000173976
2.51104e-06
0.000173701
2.5034e-06
0.000173426
2.49509e-06
0.000173151
2.4864e-06
0.000172878
2.47762e-06
0.000172605
2.46902e-06
0.000172333
2.46083e-06
0.000172063
2.45323e-06
0.000171795
2.44638e-06
0.000171529
2.44037e-06
0.000171264
2.43529e-06
0.000171003
2.43115e-06
0.000170744
2.42796e-06
0.000170488
2.42572e-06
0.000170236
2.42441e-06
0.000169987
2.42402e-06
0.000169743
2.42459e-06
0.000169503
2.42617e-06
0.000169269
2.42891e-06
0.000169041
2.43301e-06
0.000168819
2.43874e-06
0.000168604
2.44648e-06
0.000168397
2.45667e-06
0.0001682
2.46983e-06
0.000168012
2.48656e-06
0.000167837
2.50748e-06
0.000167675
2.53326e-06
0.000167529
2.56456e-06
0.000167401
2.602e-06
0.000167296
2.64611e-06
0.000167217
2.69729e-06
0.000167169
2.7557e-06
0.000167159
2.82121e-06
0.000167192
2.89327e-06
0.000167277
2.97077e-06
0.000167423
3.05195e-06
0.000167641
3.13419e-06
0.00016794
3.21391e-06
0.000168333
3.28642e-06
0.00016883
3.3459e-06
0.000169439
3.38548e-06
0.000170169
3.39744e-06
0.000171022
3.3737e-06
0.000171995
3.30659e-06
0.000173079
3.18986e-06
0.000174257
3.01975e-06
2.79603e-06
0.000175506
0.000196008
1.37041e-06
0.000195889
3.10732e-06
0.000195633
3.75518e-06
0.000195296
3.50691e-06
0.000194942
3.02995e-06
0.000194604
2.68664e-06
0.000194289
2.52173e-06
0.000193993
2.46857e-06
0.000193711
2.46549e-06
0.000193437
2.47952e-06
0.000193167
2.49768e-06
0.0001929
2.51625e-06
0.000192634
2.53476e-06
0.000192368
2.5535e-06
0.000192102
2.57275e-06
0.000191835
2.5926e-06
0.000191568
2.61301e-06
0.0001913
2.63386e-06
0.00019103
2.65492e-06
0.00019076
2.67596e-06
0.000190489
2.69662e-06
0.000190216
2.71653e-06
0.000189943
2.7353e-06
0.000189668
2.75256e-06
0.000189392
2.76799e-06
0.000189115
2.78132e-06
0.000188837
2.79234e-06
0.000188558
2.80093e-06
0.000188278
2.80704e-06
0.000187997
2.81071e-06
0.000187716
2.81204e-06
0.000187433
2.81118e-06
0.00018715
2.80834e-06
0.000186867
2.80377e-06
0.000186583
2.79775e-06
0.0001863
2.79056e-06
0.000186017
2.7825e-06
0.000185734
2.77386e-06
0.000185452
2.7649e-06
0.000185172
2.75587e-06
0.000184893
2.74699e-06
0.000184615
2.73843e-06
0.00018434
2.73033e-06
0.000184067
2.72275e-06
0.000183797
2.71575e-06
0.00018353
2.70932e-06
0.000183266
2.70344e-06
0.000183007
2.69805e-06
0.000182753
2.6931e-06
0.000182504
2.68855e-06
0.00018226
2.68436e-06
0.000182023
2.68055e-06
0.000181794
2.67719e-06
0.000181572
2.67439e-06
0.000181359
2.67233e-06
0.000181156
2.67125e-06
0.000180964
2.67144e-06
0.000180784
2.67322e-06
0.000180619
2.67695e-06
0.000180469
2.68296e-06
0.000180337
2.69157e-06
0.000180226
2.70304e-06
0.000180139
2.7175e-06
0.00018008
2.73495e-06
0.000180052
2.7552e-06
0.000180061
2.77776e-06
0.000180112
2.80184e-06
0.000180211
2.82623e-06
0.000180365
2.84923e-06
0.000180582
2.8686e-06
0.000180869
2.88147e-06
0.000181233
2.88433e-06
0.000181681
2.87301e-06
0.000182219
2.84276e-06
0.000182852
2.78843e-06
0.00018358
2.70479e-06
0.000184403
2.58701e-06
0.000185314
2.43129e-06
0.000186305
2.23559e-06
0.000187361
2.00035e-06
1.72885e-06
0.000188465
0.000209744
1.36582e-06
0.000209642
3.20916e-06
0.000209401
3.99601e-06
0.000209071
3.83701e-06
0.000208713
3.38771e-06
0.000208365
3.03531e-06
0.000208037
2.84985e-06
0.000207728
2.77767e-06
0.000207432
2.76072e-06
0.000207146
2.76573e-06
0.000206866
2.77835e-06
0.000206588
2.79366e-06
0.000206313
2.81038e-06
0.000206038
2.82826e-06
0.000205763
2.84726e-06
0.000205489
2.86728e-06
0.000205214
2.88817e-06
0.000204938
2.90969e-06
0.000204661
2.93159e-06
0.000204384
2.95355e-06
0.000204105
2.97522e-06
0.000203826
2.99618e-06
0.000203546
3.01606e-06
0.000203264
3.03447e-06
0.000202982
3.05109e-06
0.000202698
3.06564e-06
0.000202413
3.07791e-06
0.000202127
3.08777e-06
0.00020184
3.09514e-06
0.000201553
3.10005e-06
0.000201264
3.10256e-06
0.000200974
3.1028e-06
0.000200684
3.10095e-06
0.000200394
3.09721e-06
0.000200103
3.09184e-06
0.000199812
3.0851e-06
0.000199522
3.07724e-06
0.000199232
3.06854e-06
0.000198944
3.05923e-06
0.000198656
3.04955e-06
0.000198371
3.03966e-06
0.000198088
3.02974e-06
0.000197807
3.01986e-06
0.00019753
3.01008e-06
0.000197256
3.00041e-06
0.000196986
2.99081e-06
0.000196721
2.9812e-06
0.000196461
2.97148e-06
0.000196208
2.96156e-06
0.000195961
2.95132e-06
0.000195722
2.94069e-06
0.000195491
2.92961e-06
0.000195269
2.91806e-06
0.000195058
2.90607e-06
0.000194858
2.89369e-06
0.000194671
2.88103e-06
0.000194498
2.8682e-06
0.000194341
2.85533e-06
0.000194201
2.84252e-06
0.000194081
2.82984e-06
0.000193983
2.81728e-06
0.00019391
2.80474e-06
0.000193866
2.79199e-06
0.000193852
2.7786e-06
0.000193875
2.76396e-06
0.000193938
2.74717e-06
0.000194045
2.72708e-06
0.000194203
2.70216e-06
0.000194416
2.67056e-06
0.000194689
2.63001e-06
0.000195028
2.57787e-06
0.000195437
2.51114e-06
0.00019592
2.42651e-06
0.000196479
2.32048e-06
0.000197115
2.18957e-06
0.000197827
2.03061e-06
0.00019861
1.84114e-06
0.000199459
1.61992e-06
0.000200365
1.36748e-06
0.000201317
1.08657e-06
7.82107e-07
0.000202302
0.000224438
1.35807e-06
0.000224349
3.29865e-06
0.000224122
4.22322e-06
0.000223799
4.15936e-06
0.000223441
3.74585e-06
0.000223086
3.39089e-06
0.000222747
3.18848e-06
0.000222426
3.09852e-06
0.000222119
3.06767e-06
0.000221822
3.06303e-06
0.000221531
3.06934e-06
0.000221244
3.08069e-06
0.000220959
3.095e-06
0.000220676
3.11152e-06
0.000220394
3.12987e-06
0.000220111
3.14974e-06
0.000219829
3.17082e-06
0.000219546
3.19281e-06
0.000219262
3.21535e-06
0.000218978
3.23808e-06
0.000218692
3.26061e-06
0.000218406
3.28253e-06
0.000218119
3.30342e-06
0.000217831
3.32293e-06
0.000217542
3.3407e-06
0.000217252
3.35646e-06
0.000216961
3.36998e-06
0.000216669
3.38111e-06
0.000216375
3.38977e-06
0.000216081
3.39594e-06
0.000215786
3.39964e-06
0.00021549
3.40098e-06
0.000215193
3.40008e-06
0.000214896
3.39712e-06
0.000214599
3.39231e-06
0.000214302
3.38586e-06
0.000214006
3.37802e-06
0.000213711
3.36901e-06
0.000213417
3.35904e-06
0.000213125
3.3483e-06
0.000212835
3.33693e-06
0.000212548
3.32506e-06
0.000212265
3.31273e-06
0.000211985
3.29995e-06
0.00021171
3.28668e-06
0.00021144
3.27282e-06
0.000211176
3.25826e-06
0.000210919
3.24285e-06
0.00021067
3.22642e-06
0.000210429
3.20882e-06
0.000210198
3.1899e-06
0.000209977
3.16953e-06
0.000209767
3.1476e-06
0.00020957
3.12404e-06
0.000209388
3.0988e-06
0.00020922
3.07182e-06
0.00020907
3.04306e-06
0.000208939
3.01245e-06
0.000208828
2.97988e-06
0.000208741
2.94519e-06
0.000208679
2.90811e-06
0.000208645
2.86827e-06
0.000208643
2.82516e-06
0.000208675
2.77811e-06
0.000208745
2.72625e-06
0.000208857
2.66851e-06
0.000209015
2.6036e-06
0.000209222
2.53e-06
0.000209482
2.44596e-06
0.000209798
2.3495e-06
0.000210174
2.23844e-06
0.000210612
2.11048e-06
0.000211113
1.96323e-06
0.000211677
1.79436e-06
0.000212304
1.60176e-06
0.000212989
1.38381e-06
0.00021373
1.13967e-06
0.000214519
8.69732e-07
0.00021535
5.76001e-07
0.000216213
2.62593e-07
-6.46989e-08
0.0002171
0.000240159
1.34972e-06
0.000240078
3.37983e-06
0.000239862
4.43884e-06
0.000239548
4.4733e-06
0.000239192
4.10187e-06
0.000238833
3.75038e-06
0.000238487
3.53496e-06
0.000238156
3.42911e-06
0.000237839
3.38488e-06
0.000237531
3.37038e-06
0.000237231
3.3699e-06
0.000236935
3.37673e-06
0.000236642
3.38811e-06
0.000236351
3.40282e-06
0.00023606
3.42014e-06
0.000235771
3.43955e-06
0.000235481
3.46058e-06
0.000235191
3.48281e-06
0.000234901
3.50581e-06
0.00023461
3.52916e-06
0.000234318
3.55244e-06
0.000234026
3.5752e-06
0.000233732
3.59704e-06
0.000233438
3.61757e-06
0.000233143
3.63645e-06
0.000232847
3.65338e-06
0.00023255
3.66811e-06
0.000232251
3.68049e-06
0.000231952
3.69038e-06
0.000231652
3.69772e-06
0.000231351
3.70252e-06
0.000231049
3.70483e-06
0.000230747
3.70472e-06
0.000230445
3.70234e-06
0.000230143
3.69784e-06
0.000229842
3.69141e-06
0.000229541
3.68324e-06
0.000229242
3.67352e-06
0.000228945
3.6624e-06
0.00022865
3.65004e-06
0.000228358
3.63655e-06
0.00022807
3.62197e-06
0.000227786
3.60632e-06
0.000227507
3.58955e-06
0.000227234
3.57156e-06
0.000226967
3.55221e-06
0.000226708
3.53133e-06
0.000226456
3.5087e-06
0.000226215
3.48411e-06
0.000225983
3.45735e-06
0.000225763
3.4282e-06
0.000225556
3.39646e-06
0.000225362
3.36195e-06
0.000225184
3.3245e-06
0.000225022
3.28393e-06
0.000224878
3.24007e-06
0.000224753
3.19273e-06
0.000224651
3.14168e-06
0.000224571
3.08665e-06
0.000224518
3.02729e-06
0.000224493
2.96317e-06
0.000224498
2.89373e-06
0.000224537
2.81833e-06
0.000224611
2.73616e-06
0.000224725
2.64629e-06
0.00022488
2.54765e-06
0.00022508
2.43902e-06
0.000225327
2.31904e-06
0.000225623
2.18625e-06
0.000225971
2.03909e-06
0.000226371
1.87596e-06
0.000226825
1.69523e-06
0.000227331
1.49536e-06
0.00022789
1.27498e-06
0.000228498
1.03302e-06
0.000229153
7.6894e-07
0.00022985
4.82978e-07
0.000230583
1.76628e-07
0.000231347
-1.47148e-07
0.000232134
-4.83696e-07
-8.26791e-07
0.000232937
0.000256979
1.34263e-06
0.000256903
3.45608e-06
0.000256697
4.64499e-06
0.000256392
4.77871e-06
0.000256039
4.45395e-06
0.000255679
4.11117e-06
0.000255327
3.88671e-06
0.000254989
3.76729e-06
0.000254663