/*--------------------------------*- C++ -*----------------------------------*\
| =========                 |                                                 |
| \\      /  F ield         | OpenFOAM: The Open Source CFD Toolbox           |
|  \\    /   O peration     | Version:  2106                                  |
|   \\  /    A nd           | Website:  www.openfoam.com                      |
|    \\/     M anipulation  |                                                 |
\*---------------------------------------------------------------------------*/
FoamFile
{
    version     2.0;
    format      ascii;
    arch        "LSB;label=32;scalar=64";
    class       surfaceScalarField;
    location    "0.2";
    object      phi;
}
// * * * * * * * * * * * * * * * * * * * * * * * * * * * * * * * * * * * * * //

dimensions      [1 0 -1 0 0 0 0];

oriented        oriented;

internalField   nonuniform List<scalar> 
23692
(
9.28778e-05
2.01767e-07
9.25505e-05
3.27342e-07
9.22492e-05
3.01276e-07
9.20398e-05
2.09394e-07
9.18965e-05
1.43286e-07
9.17766e-05
1.19938e-07
9.16551e-05
1.21537e-07
9.15241e-05
1.30919e-07
9.13843e-05
1.39871e-07
9.12381e-05
1.46212e-07
9.10879e-05
1.50181e-07
9.09354e-05
1.52515e-07
9.07815e-05
1.53851e-07
9.06269e-05
1.54588e-07
9.04719e-05
1.54985e-07
9.03167e-05
1.55191e-07
9.01614e-05
1.55304e-07
9.0006e-05
1.55397e-07
8.98505e-05
1.55515e-07
8.96948e-05
1.557e-07
8.95388e-05
1.55983e-07
8.93824e-05
1.56388e-07
8.92255e-05
1.56937e-07
8.90678e-05
1.57642e-07
8.89093e-05
1.58508e-07
8.87498e-05
1.59529e-07
8.85891e-05
1.6069e-07
8.84271e-05
1.61975e-07
8.82637e-05
1.63363e-07
8.80989e-05
1.64829e-07
8.79325e-05
1.66349e-07
8.77646e-05
1.67903e-07
8.75952e-05
1.69472e-07
8.74241e-05
1.71038e-07
8.72515e-05
1.72591e-07
8.70774e-05
1.74116e-07
8.69018e-05
1.7561e-07
8.67247e-05
1.77072e-07
8.65462e-05
1.78507e-07
8.63663e-05
1.79913e-07
8.6185e-05
1.81298e-07
8.60023e-05
1.8267e-07
8.58183e-05
1.84038e-07
8.56328e-05
1.85414e-07
8.5446e-05
1.86816e-07
8.52577e-05
1.88265e-07
8.5068e-05
1.89787e-07
8.48765e-05
1.9141e-07
8.46834e-05
1.93168e-07
8.44883e-05
1.951e-07
8.4291e-05
1.97253e-07
8.40913e-05
1.99682e-07
8.38889e-05
2.02451e-07
8.36832e-05
2.05638e-07
8.34739e-05
2.09332e-07
8.32602e-05
2.13645e-07
8.30415e-05
2.18705e-07
8.28169e-05
2.24676e-07
8.25851e-05
2.31759e-07
8.23449e-05
2.40203e-07
8.20946e-05
2.50324e-07
8.1832e-05
2.62521e-07
8.15547e-05
2.77307e-07
8.12594e-05
2.95348e-07
8.09419e-05
3.17513e-07
8.05969e-05
3.4496e-07
8.02177e-05
3.79244e-07
7.97952e-05
4.22492e-07
7.93175e-05
4.77659e-07
7.87686e-05
5.4892e-07
7.81263e-05
6.4228e-07
7.73597e-05
7.6655e-07
7.64249e-05
9.34876e-07
7.52576e-05
1.16723e-06
7.37632e-05
1.4944e-06
7.17989e-05
1.96437e-06
6.91468e-05
2.65208e-06
6.54715e-05
3.67528e-06
6.02412e-05
5.23034e-06
5.25624e-05
7.67874e-06
1.19757e-05
4.05867e-05
9.93928e-05
4.0835e-07
9.90497e-05
6.70421e-07
9.87298e-05
6.21138e-07
9.85048e-05
4.34409e-07
9.83492e-05
2.98944e-07
9.82187e-05
2.50406e-07
9.80873e-05
2.52944e-07
9.79466e-05
2.71631e-07
9.77968e-05
2.89643e-07
9.76406e-05
3.02449e-07
9.74803e-05
3.10476e-07
9.73176e-05
3.1521e-07
9.71535e-05
3.17913e-07
9.69887e-05
3.19416e-07
9.68235e-05
3.20224e-07
9.6658e-05
3.20648e-07
9.64924e-05
3.20892e-07
9.63267e-05
3.21092e-07
9.61609e-05
3.21352e-07
9.59948e-05
3.21748e-07
9.58285e-05
3.22348e-07
9.56616e-05
3.23203e-07
9.54942e-05
3.24352e-07
9.5326e-05
3.25826e-07
9.51569e-05
3.27626e-07
9.49867e-05
3.29739e-07
9.48152e-05
3.32144e-07
9.46424e-05
3.34804e-07
9.44681e-05
3.37671e-07
9.42922e-05
3.40697e-07
9.41147e-05
3.43836e-07
9.39356e-05
3.47039e-07
9.37548e-05
3.50271e-07
9.35723e-05
3.535e-07
9.33882e-05
3.56695e-07
9.32025e-05
3.59834e-07
9.30152e-05
3.62908e-07
9.28263e-05
3.65915e-07
9.2636e-05
3.68858e-07
9.24441e-05
3.71747e-07
9.22508e-05
3.7459e-07
9.20561e-05
3.77402e-07
9.18599e-05
3.80202e-07
9.16623e-05
3.83019e-07
9.14632e-05
3.85887e-07
9.12626e-05
3.88848e-07
9.10605e-05
3.91955e-07
9.08566e-05
3.95266e-07
9.06509e-05
3.9885e-07
9.04432e-05
4.02786e-07
9.02333e-05
4.07169e-07
9.00209e-05
4.12113e-07
8.98056e-05
4.17748e-07
8.9587e-05
4.24229e-07
8.93646e-05
4.31741e-07
8.91377e-05
4.40502e-07
8.89056e-05
4.5078e-07
8.86674e-05
4.62902e-07
8.84219e-05
4.77271e-07
8.81677e-05
4.94387e-07
8.79031e-05
5.14881e-07
8.76261e-05
5.39549e-07
8.7334e-05
5.6941e-07
8.70236e-05
6.05773e-07
8.66907e-05
6.50345e-07
8.63303e-05
7.0538e-07
8.59357e-05
7.73881e-07
8.54983e-05
8.59911e-07
8.50069e-05
9.69044e-07
8.44467e-05
1.10904e-06
8.37982e-05
1.29088e-06
8.30344e-05
1.53027e-06
8.21192e-05
1.85008e-06
8.10026e-05
2.28382e-06
7.96162e-05
2.88086e-06
7.78671e-05
3.71339e-06
7.56354e-05
4.88386e-06
7.27812e-05
6.52944e-06
6.91926e-05
8.81897e-06
6.49884e-05
1.18829e-05
1.53244e-05
6.16397e-05
0.000106374
6.1051e-07
0.000106024
1.02024e-06
0.00010569
9.55316e-07
0.000105447
6.77346e-07
0.000105274
4.71462e-07
0.000105129
3.95303e-07
0.000104985
3.96792e-07
0.000104834
4.23584e-07
0.000104673
4.50049e-07
0.000104507
4.69049e-07
0.000104336
4.81023e-07
0.000104163
4.88106e-07
0.000103989
4.92167e-07
0.000103814
4.94429e-07
0.000103638
4.95653e-07
0.000103463
4.9631e-07
0.000103287
4.96708e-07
0.000103111
4.9705e-07
0.000102935
4.97493e-07
0.000102758
4.98155e-07
0.000102582
4.99134e-07
0.000102404
5.00504e-07
0.000102226
5.0233e-07
0.000102047
5.04649e-07
0.000101868
5.07469e-07
0.000101687
5.1077e-07
0.000101504
5.14507e-07
0.00010132
5.18632e-07
0.000101135
5.23068e-07
0.000100948
5.27747e-07
0.000100759
5.3259e-07
0.000100569
5.37528e-07
0.000100376
5.42509e-07
0.000100182
5.47478e-07
9.99867e-05
5.5239e-07
9.97893e-05
5.57215e-07
9.95903e-05
5.61933e-07
9.93897e-05
5.66546e-07
9.91875e-05
5.71057e-07
9.89837e-05
5.75476e-07
9.87785e-05
5.79821e-07
9.85718e-05
5.84112e-07
9.83636e-05
5.88381e-07
9.8154e-05
5.92669e-07
9.79428e-05
5.97026e-07
9.77301e-05
6.01521e-07
9.75159e-05
6.0623e-07
9.72999e-05
6.11242e-07
9.70821e-05
6.16659e-07
9.68622e-05
6.22604e-07
9.66402e-05
6.2922e-07
9.64156e-05
6.36676e-07
9.61882e-05
6.45169e-07
9.59575e-05
6.54933e-07
9.5723e-05
6.66242e-07
9.5484e-05
6.79426e-07
9.52399e-05
6.94883e-07
9.49897e-05
7.13098e-07
9.47323e-05
7.34668e-07
9.44664e-05
7.60336e-07
9.41902e-05
7.91022e-07
9.39019e-05
8.27892e-07
9.35989e-05
8.7242e-07
9.32782e-05
9.26491e-07
9.2936e-05
9.92538e-07
9.25676e-05
1.07373e-06
9.21672e-05
1.17425e-06
9.17275e-05
1.29964e-06
9.12391e-05
1.4574e-06
9.06905e-05
1.65768e-06
9.00669e-05
1.91447e-06
8.935e-05
2.24713e-06
8.85175e-05
2.68267e-06
8.75426e-05
3.25862e-06
8.63968e-05
4.02665e-06
8.50547e-05
5.05551e-06
8.35084e-05
6.43014e-06
8.17988e-05
8.23906e-06
8.00844e-05
1.05334e-05
7.87698e-05
1.31975e-05
1.55948e-05
7.84994e-05
0.000113853
7.9888e-07
0.000113508
1.36495e-06
0.000113164
1.29882e-06
0.000112902
9.40059e-07
0.000112708
6.65456e-07
0.000112544
5.58854e-07
0.000112385
5.55911e-07
0.00011222
5.88368e-07
0.000112048
6.21862e-07
0.000111871
6.46308e-07
0.00011169
6.61858e-07
0.000111507
6.71111e-07
0.000111323
6.76437e-07
0.000111138
6.7942e-07
0.000110953
6.81056e-07
0.000110767
6.81966e-07
0.000110581
6.82552e-07
0.000110395
6.83092e-07
0.000110209
6.83787e-07
0.000110022
6.84796e-07
0.000109835
6.86243e-07
0.000109647
6.8823e-07
0.000109459
6.90835e-07
0.000109269
6.94106e-07
0.000109079
6.98048e-07
0.000108887
7.02633e-07
0.000108694
7.07806e-07
0.000108499
7.13489e-07
0.000108302
7.19587e-07
0.000108104
7.25999e-07
0.000107904
7.32626e-07
0.000107702
7.39373e-07
0.000107498
7.46163e-07
0.000107293
7.52932e-07
0.000107086
7.59616e-07
0.000106877
7.66171e-07
0.000106666
7.72576e-07
0.000106454
7.78826e-07
0.00010624
7.84929e-07
0.000106025
7.90897e-07
0.000105808
7.96751e-07
0.000105589
8.02522e-07
0.000105369
8.08252e-07
0.000105148
8.13994e-07
0.000104925
8.19817e-07
0.000104701
8.25811e-07
0.000104475
8.32078e-07
0.000104247
8.38733e-07
0.000104018
8.45916e-07
0.000103787
8.53787e-07
0.000103554
8.62535e-07
0.000103318
8.72381e-07
0.00010308
8.83589e-07
0.000102838
8.96462e-07
0.000102593
9.11363e-07
0.000102344
9.2872e-07
0.000102089
9.49052e-07
0.00010183
9.72989e-07
0.000101563
1.0013e-06
0.000101288
1.03493e-06
0.000101004
1.07506e-06
0.000100709
1.12315e-06
0.0001004
1.18105e-06
0.000100076
1.25109e-06
9.97321e-05
1.33622e-06
9.93656e-05
1.44025e-06
9.89717e-05
1.56809e-06
9.85453e-05
1.72614e-06
9.80799e-05
1.92276e-06
9.75686e-05
2.16901e-06
9.70036e-05
2.47946e-06
9.63772e-05
2.87345e-06
9.56835e-05
3.37641e-06
9.49208e-05
4.02135e-06
9.40977e-05
4.84975e-06
9.3243e-05
5.91022e-06
9.24217e-05
7.25142e-06
9.17584e-05
8.90236e-06
9.14633e-05
1.08285e-05
9.18184e-05
1.28424e-05
1.44615e-05
9.29517e-05
0.000121863
9.64829e-07
0.000121535
1.69289e-06
0.000121188
1.64582e-06
0.000120905
1.22327e-06
0.000120686
8.84733e-07
0.0001205
7.44909e-07
0.000120322
7.33011e-07
0.000120143
7.67528e-07
0.000119959
8.05811e-07
0.000119771
8.34466e-07
0.00011958
8.52946e-07
0.000119387
8.64034e-07
0.000119193
8.70455e-07
0.000118999
8.74082e-07
0.000118803
8.76111e-07
0.000118608
8.7729e-07
0.000118413
8.78119e-07
0.000118217
8.78932e-07
0.000118021
8.7998e-07
0.000117824
8.81445e-07
0.000117627
8.83488e-07
0.000117429
8.86223e-07
0.00011723
8.89738e-07
0.00011703
8.94089e-07
0.000116828
8.9928e-07
0.000116626
9.05269e-07
0.000116422
9.11981e-07
0.000116216
9.19319e-07
0.000116008
9.27163e-07
0.000115799
9.35384e-07
0.000115588
9.43859e-07
0.000115375
9.52468e-07
0.00011516
9.61114e-07
0.000114943
9.69715e-07
0.000114724
9.78193e-07
0.000114504
9.86496e-07
0.000114282
9.94596e-07
0.000114058
1.00248e-06
0.000113833
1.01016e-06
0.000113606
1.01765e-06
0.000113378
1.02498e-06
0.000113148
1.03219e-06
0.000112917
1.03932e-06
0.000112685
1.04644e-06
0.000112451
1.05365e-06
0.000112216
1.06104e-06
0.000111979
1.06874e-06
0.000111741
1.07689e-06
0.000111501
1.08567e-06
0.00011126
1.09527e-06
0.000111016
1.10592e-06
0.000110771
1.11789e-06
0.000110523
1.1315e-06
0.000110272
1.14711e-06
0.000110018
1.16516e-06
0.000109761
1.18616e-06
0.000109499
1.21074e-06
0.000109233
1.23963e-06
0.00010896
1.27375e-06
0.000108681
1.31419e-06
0.000108394
1.36233e-06
0.000108097
1.41982e-06
0.000107789
1.48875e-06
0.000107469
1.5717e-06
0.000107133
1.67191e-06
0.00010678
1.79342e-06
0.000106406
1.94135e-06
0.00010601
2.12216e-06
0.000105589
2.34404e-06
0.000105141
2.6173e-06
0.000104665
2.95496e-06
0.000104166
3.37324e-06
0.00010365
3.89196e-06
0.000103137
4.53458e-06
0.000102659
5.32702e-06
0.000102276
6.29408e-06
0.000102076
7.45096e-06
0.000102192
8.7863e-06
0.000102788
1.02328e-05
0.000104006
1.16245e-05
1.26583e-05
0.000105809
0.000130439
1.10226e-06
0.000130138
1.99441e-06
0.000129793
1.9903e-06
0.00012949
1.52598e-06
0.000129244
1.13137e-06
0.000129033
9.56189e-07
0.000128835
9.30247e-07
0.00012864
9.62405e-07
0.000128444
1.00256e-06
0.000128244
1.03374e-06
0.000128043
1.05423e-06
0.00012784
1.06666e-06
0.000127637
1.07392e-06
0.000127433
1.07807e-06
0.000127229
1.08045e-06
0.000127024
1.08192e-06
0.000126819
1.08306e-06
0.000126614
1.08424e-06
0.000126408
1.08577e-06
0.000126202
1.08784e-06
0.000125994
1.09063e-06
0.000125786
1.09427e-06
0.000125577
1.09886e-06
0.000125367
1.10445e-06
0.000125155
1.11103e-06
0.000124942
1.11855e-06
0.000124727
1.12692e-06
0.00012451
1.13601e-06
0.000124292
1.14567e-06
0.000124071
1.15577e-06
0.000123849
1.16614e-06
0.000123625
1.17664e-06
0.000123399
1.18716e-06
0.000123171
1.19759e-06
0.000122941
1.20786e-06
0.00012271
1.21789e-06
0.000122477
1.22765e-06
0.000122242
1.23713e-06
0.000122006
1.24633e-06
0.000121768
1.25527e-06
0.000121529
1.26399e-06
0.000121289
1.27252e-06
0.000121047
1.28093e-06
0.000120804
1.2893e-06
0.00012056
1.29772e-06
0.000120315
1.30632e-06
0.000120069
1.31524e-06
0.000119821
1.32465e-06
0.000119572
1.33474e-06
0.000119321
1.34573e-06
0.000119069
1.3579e-06
0.000118816
1.37154e-06
0.00011856
1.38702e-06
0.000118302
1.40476e-06
0.000118042
1.42523e-06
0.00011778
1.44903e-06
0.000117513
1.47684e-06
0.000117244
1.50947e-06
0.000116969
1.54792e-06
0.00011669
1.59338e-06
0.000116405
1.64731e-06
0.000116114
1.71145e-06
0.000115814
1.78796e-06
0.000115507
1.87945e-06
0.000115189
1.98911e-06
0.000114862
2.12084e-06
0.000114524
2.27942e-06
0.000114175
2.47063e-06
0.000113818
2.7015e-06
0.000113455
2.98041e-06
0.000113093
3.31728e-06
0.000112742
3.72347e-06
0.000112423
4.21152e-06
0.000112163
4.7942e-06
0.000112008
5.4826e-06
0.000112019
6.28231e-06
0.000112283
7.18682e-06
0.000112903
8.1668e-06
0.00011398
9.15559e-06
0.00011557
1.00343e-05
1.06307e-05
0.000117598
0.000139616
1.20869e-06
0.000139348
2.26322e-06
0.000139011
2.32673e-06
0.000138692
1.84538e-06
0.000138418
1.40515e-06
0.00013818
1.19377e-06
0.000137962
1.14886e-06
0.00013775
1.17392e-06
0.00013754
1.21263e-06
0.00013733
1.24431e-06
0.000137118
1.26566e-06
0.000136906
1.2788e-06
0.000136693
1.28655e-06
0.00013648
1.29105e-06
0.000136267
1.29373e-06
0.000136054
1.29551e-06
0.00013584
1.29703e-06
0.000135625
1.29871e-06
0.00013541
1.30086e-06
0.000135194
1.3037e-06
0.000134977
1.30743e-06
0.000134759
1.31217e-06
0.00013454
1.31802e-06
0.00013432
1.32501e-06
0.000134098
1.33314e-06
0.000133874
1.34233e-06
0.000133648
1.35246e-06
0.000133421
1.36339e-06
0.000133192
1.37495e-06
0.00013296
1.38696e-06
0.000132727
1.39925e-06
0.000132492
1.41165e-06
0.000132255
1.42403e-06
0.000132017
1.43627e-06
0.000131776
1.44827e-06
0.000131534
1.45997e-06
0.000131291
1.47132e-06
0.000131045
1.48229e-06
0.000130799
1.4929e-06
0.000130551
1.50317e-06
0.000130302
1.51312e-06
0.000130051
1.52281e-06
0.0001298
1.5323e-06
0.000129548
1.54169e-06
0.000129294
1.55108e-06
0.00012904
1.5606e-06
0.000128785
1.57042e-06
0.000128529
1.5807e-06
0.000128272
1.59168e-06
0.000128014
1.60358e-06
0.000127755
1.61669e-06
0.000127495
1.63135e-06
0.000127234
1.64795e-06
0.000126972
1.66691e-06
0.000126709
1.68878e-06
0.000126444
1.71415e-06
0.000126177
1.74373e-06
0.000125908
1.77839e-06
0.000125637
1.81912e-06
0.000125363
1.86712e-06
0.000125086
1.92383e-06
0.000124807
1.99095e-06
0.000124524
2.07051e-06
0.000124239
2.16493e-06
0.000123951
2.27706e-06
0.000123661
2.41029e-06
0.000123372
2.56857e-06
0.000123086
2.75646e-06
0.000122809
2.97919e-06
0.000122547
3.24253e-06
0.000122311
3.55268e-06
0.000122119
3.91586e-06
0.000121993
4.33768e-06
0.000121965
4.82194e-06
0.000122079
5.36889e-06
0.000122388
5.97238e-06
0.000122959
6.61593e-06
0.000123858
7.26771e-06
0.000125139
7.87531e-06
0.000126809
8.36356e-06
8.64153e-06
0.000128799
0.000149433
1.2852e-06
0.0001492
2.49684e-06
0.000148876
2.65061e-06
0.000148544
2.17717e-06
0.000148245
1.70364e-06
0.000147982
1.45691e-06
0.000147742
1.38901e-06
0.000147514
1.40247e-06
0.00014729
1.43632e-06
0.000147068
1.46631e-06
0.000146846
1.48721e-06
0.000146625
1.50031e-06
0.000146403
1.50815e-06
0.000146182
1.51279e-06
0.00014596
1.51569e-06
0.000145737
1.5178e-06
0.000145515
1.51978e-06
0.000145291
1.52208e-06
0.000145067
1.52502e-06
0.000144842
1.52882e-06
0.000144616
1.53368e-06
0.000144388
1.53972e-06
0.000144159
1.54702e-06
0.000143928
1.5556e-06
0.000143696
1.56543e-06
0.000143462
1.57642e-06
0.000143226
1.58843e-06
0.000142988
1.60128e-06
0.000142748
1.61478e-06
0.000142507
1.62873e-06
0.000142263
1.64293e-06
0.000142017
1.6572e-06
0.00014177
1.67138e-06
0.000141521
1.68536e-06
0.00014127
1.69901e-06
0.000141018
1.71226e-06
0.000140764
1.72506e-06
0.000140509
1.73738e-06
0.000140253
1.74923e-06
0.000139995
1.76062e-06
0.000139737
1.77158e-06
0.000139477
1.78218e-06
0.000139217
1.79248e-06
0.000138956
1.80258e-06
0.000138695
1.81258e-06
0.000138433
1.82263e-06
0.00013817
1.83288e-06
0.000137907
1.84352e-06
0.000137644
1.85479e-06
0.000137381
1.86692e-06
0.000137117
1.8802e-06
0.000136854
1.89499e-06
0.00013659
1.91167e-06
0.000136326
1.93068e-06
0.000136063
1.95254e-06
0.000135799
1.97786e-06
0.000135535
2.00734e-06
0.000135272
2.04178e-06
0.000135009
2.08215e-06
0.000134746
2.12956e-06
0.000134485
2.1853e-06
0.000134225
2.2509e-06
0.000133967
2.3281e-06
0.000133713
2.41891e-06
0.000133465
2.52562e-06
0.000133224
2.65081e-06
0.000132995
2.79731e-06
0.000132784
2.96818e-06
0.000132596
3.1666e-06
0.000132443
3.39564e-06
0.000132338
3.65801e-06
0.000132298
3.95555e-06
0.000132347
4.28855e-06
0.000132514
4.65484e-06
0.000132835
5.0485e-06
0.000133349
5.45833e-06
0.000134099
5.86616e-06
0.000135121
6.24524e-06
0.000136437
6.55964e-06
0.000138034
6.76599e-06
6.81974e-06
0.000139856
0.000159932
1.33555e-06
0.000159733
2.69607e-06
0.000159424
2.9588e-06
0.000159085
2.51634e-06
0.000158766
2.02274e-06
0.00015848
1.74333e-06
0.000158219
1.64981e-06
0.000157974
1.64787e-06
0.000157736
1.67369e-06
0.000157503
1.69981e-06
0.000157271
1.71888e-06
0.00015704
1.73111e-06
0.00015681
1.73856e-06
0.00015658
1.74311e-06
0.000156349
1.74613e-06
0.000156118
1.74858e-06
0.000155887
1.75111e-06
0.000155655
1.75416e-06
0.000155422
1.75805e-06
0.000155188
1.76301e-06
0.000154952
1.7692e-06
0.000154715
1.77674e-06
0.000154476
1.78568e-06
0.000154236
1.79602e-06
0.000153994
1.80771e-06
0.000153749
1.82062e-06
0.000153503
1.83459e-06
0.000153255
1.84941e-06
0.000153005
1.86487e-06
0.000152753
1.88074e-06
0.000152499
1.89682e-06
0.000152243
1.91289e-06
0.000151986
1.92879e-06
0.000151727
1.94437e-06
0.000151467
1.95953e-06
0.000151205
1.97417e-06
0.000150941
1.98823e-06
0.000150677
2.00168e-06
0.000150412
2.01453e-06
0.000150146
2.02677e-06
0.000149879
2.03845e-06
0.000149611
2.04962e-06
0.000149343
2.06034e-06
0.000149075
2.07072e-06
0.000148807
2.08086e-06
0.000148539
2.09089e-06
0.000148271
2.10097e-06
0.000148003
2.11129e-06
0.000147736
2.12207e-06
0.000147469
2.13354e-06
0.000147203
2.146e-06
0.000146938
2.15976e-06
0.000146675
2.1752e-06
0.000146413
2.19274e-06
0.000146152
2.21286e-06
0.000145894
2.23612e-06
0.000145638
2.26314e-06
0.000145386
2.29466e-06
0.000145136
2.33149e-06
0.000144891
2.37459e-06
0.000144651
2.42502e-06
0.000144418
2.48399e-06
0.000144194
2.55282e-06
0.00014398
2.633e-06
0.000143779
2.72607e-06
0.000143596
2.83368e-06
0.000143436
2.95747e-06
0.000143305
3.09895e-06
0.000143212
3.2594e-06
0.000143169
3.43956e-06
0.000143187
3.63942e-06
0.000143285
3.85772e-06
0.000143482
4.09149e-06
0.000143801
4.33548e-06
0.000144268
4.58149e-06
0.000144909
4.8178e-06
0.000145746
5.02881e-06
0.000146796
5.19519e-06
0.000148061
5.29476e-06
0.000149522
5.30479e-06
5.20582e-06
0.000151136
0.000171159
1.3649e-06
0.000170991
2.86404e-06
0.0001707
3.24951e-06
0.000170359
2.85789e-06
0.000170024
2.35746e-06
0.000169718
2.0497e-06
0.000169438
1.92955e-06
0.000169176
1.90942e-06
0.000168925
1.92452e-06
0.00016868
1.94474e-06
0.000168439
1.96063e-06
0.000168199
1.97116e-06
0.00016796
1.97771e-06
0.000167721
1.9819e-06
0.000167482
1.98494e-06
0.000167243
1.98772e-06
0.000167003
1.99087e-06
0.000166762
1.99481e-06
0.000166521
1.99982e-06
0.000166277
2.00611e-06
0.000166033
2.01384e-06
0.000165787
2.02307e-06
0.000165538
2.03382e-06
0.000165288
2.04608e-06
0.000165036
2.05974e-06
0.000164782
2.07466e-06
0.000164526
2.09064e-06
0.000164268
2.10745e-06
0.000164008
2.12485e-06
0.000163746
2.1426e-06
0.000163483
2.16045e-06
0.000163217
2.17821e-06
0.00016295
2.19568e-06
0.000162682
2.2127e-06
0.000162412
2.22916e-06
0.000162142
2.24495e-06
0.00016187
2.26002e-06
0.000161597
2.27432e-06
0.000161324
2.28783e-06
0.00016105
2.30057e-06
0.000160776
2.31257e-06
0.000160502
2.32386e-06
0.000160227
2.33453e-06
0.000159954
2.34463e-06
0.00015968
2.35429e-06
0.000159407
2.36361e-06
0.000159136
2.37275e-06
0.000158865
2.38187e-06
0.000158596
2.39118e-06
0.000158329
2.40089e-06
0.000158063
2.41126e-06
0.0001578
2.42258e-06
0.00015754
2.43518e-06
0.000157284
2.44941e-06
0.000157031
2.4657e-06
0.000156783
2.4845e-06
0.000156539
2.50634e-06
0.000156302
2.53179e-06
0.000156072
2.56149e-06
0.000155851
2.59614e-06
0.000155639
2.63651e-06
0.00015544
2.68342e-06
0.000155255
2.7377e-06
0.000155088
2.80023e-06
0.000154942
2.8718e-06
0.000154822
2.95312e-06
0.000154735
3.04472e-06
0.000154687
3.1468e-06
0.000154688
3.25911e-06
0.000154746
3.38073e-06
0.000154876
3.50986e-06
0.00015509
3.64353e-06
0.000155404
3.77731e-06
0.000155835
3.90509e-06
0.000156397
4.01885e-06
0.000157106
4.10871e-06
0.000157972
4.16312e-06
0.000158998
4.16965e-06
0.000160176
4.1161e-06
0.000161489
3.99221e-06
3.79167e-06
0.000162903
0.000183165
1.37875e-06
0.000183024
3.00519e-06
0.000182751
3.5222e-06
0.000182412
3.19745e-06
0.000182067
2.70269e-06
0.000181744
2.37217e-06
0.000181448
2.22592e-06
0.000181171
2.18598e-06
0.000180907
2.18831e-06
0.000180651
2.20091e-06
0.0001804
2.21238e-06
0.00018015
2.22038e-06
0.000179902
2.22555e-06
0.000179655
2.22909e-06
0.000179408
2.23203e-06
0.000179161
2.23514e-06
0.000178913
2.23898e-06
0.000178664
2.24392e-06
0.000178413
2.25021e-06
0.000178161
2.258e-06
0.000177908
2.26742e-06
0.000177652
2.2785e-06
0.000177395
2.29122e-06
0.000177135
2.3055e-06
0.000176874
2.32121e-06
0.00017661
2.33819e-06
0.000176345
2.35619e-06
0.000176077
2.37496e-06
0.000175808
2.39423e-06
0.000175537
2.41374e-06
0.000175264
2.43325e-06
0.00017499
2.45251e-06
0.000174714
2.47134e-06
0.000174437
2.48957e-06
0.000174159
2.50706e-06
0.00017388
2.52371e-06
0.000173601
2.53945e-06
0.000173321
2.55422e-06
0.000173041
2.56799e-06
0.000172761
2.58077e-06
0.000172481
2.59257e-06
0.000172201
2.60343e-06
0.000171922
2.61341e-06
0.000171644
2.62255e-06
0.000171368
2.63094e-06
0.000171092
2.6387e-06
0.000170819
2.64594e-06
0.000170548
2.65279e-06
0.00017028
2.65944e-06
0.000170015
2.66605e-06
0.000169753
2.67284e-06
0.000169496
2.68003e-06
0.000169243
2.68789e-06
0.000168996
2.69669e-06
0.000168755
2.70674e-06
0.000168521
2.71838e-06
0.000168295
2.73198e-06
0.000168079
2.74792e-06
0.000167874
2.76662e-06
0.000167682
2.78849e-06
0.000167504
2.81395e-06
0.000167344
2.84341e-06
0.000167205
2.87722e-06
0.000167089
2.91564e-06
0.000167002
2.95879e-06
0.000166949
3.00659e-06
0.000166935
3.05868e-06
0.000166967
3.11429e-06
0.000167054
3.17217e-06
0.000167205
3.23041e-06
0.000167428
3.28636e-06
0.000167735
3.33642e-06
0.000168136
3.37604e-06
0.000168642
3.39959e-06
0.00016926
3.40048e-06
0.000169998
3.3714e-06
0.000170856
3.3048e-06
0.000171832
3.19361e-06
0.000172916
3.03223e-06
0.00017409
2.81764e-06
2.55025e-06
0.000175332
0.000196006
1.38211e-06
0.000195887
3.12443e-06
0.000195632
3.77735e-06
0.000195298
3.53158e-06
0.000194947
3.05371e-06
0.000194612
2.70675e-06
0.000194302
2.53632e-06
0.000194012
2.47607e-06
0.000193736
2.46433e-06
0.000193469
2.46797e-06
0.000193207
2.47396e-06
0.000192949
2.47869e-06
0.000192693
2.482e-06
0.000192437
2.48464e-06
0.000192182
2.48736e-06
0.000191926
2.49079e-06
0.00019167
2.49537e-06
0.000191412
2.50141e-06
0.000191153
2.50909e-06
0.000190893
2.51852e-06
0.00019063
2.52976e-06
0.000190366
2.54281e-06
0.0001901
2.55758e-06
0.000189831
2.57395e-06
0.000189561
2.59175e-06
0.000189288
2.61077e-06
0.000189014
2.63074e-06
0.000188737
2.65138e-06
0.000188459
2.6724e-06
0.000188179
2.69351e-06
0.000187898
2.71445e-06
0.000187615
2.73499e-06
0.000187332
2.75491e-06
0.000187047
2.77403e-06
0.000186762
2.79221e-06
0.000186477
2.80933e-06
0.000186191
2.82531e-06
0.000185905
2.84008e-06
0.000185619
2.8536e-06
0.000185334
2.86585e-06
0.00018505
2.87683e-06
0.000184767
2.88656e-06
0.000184485
2.89507e-06
0.000184205
2.9024e-06
0.000183928
2.9086e-06
0.000183652
2.91375e-06
0.00018338
2.91794e-06
0.000183112
2.92126e-06
0.000182848
2.92383e-06
0.000182588
2.92578e-06
0.000182333
2.92725e-06
0.000182085
2.92839e-06
0.000181844
2.92937e-06
0.00018161
2.93036e-06
0.000181385
2.93154e-06
0.00018117
2.9331e-06
0.000180967
2.93522e-06
0.000180777
2.93808e-06
0.000180602
2.94184e-06
0.000180444
2.94664e-06
0.000180305
2.95255e-06
0.000180189
2.95959e-06
0.000180098
2.96766e-06
0.000180037
2.97653e-06
0.00018001
2.98578e-06
0.000180022
2.99475e-06
0.000180078
3.00249e-06
0.000180185
3.00764e-06
0.000180349
3.00846e-06
0.000180577
3.00266e-06
0.000180876
2.98743e-06
0.000181253
2.95934e-06
0.000181714
2.91442e-06
0.000182266
2.84818e-06
0.00018291
2.75582e-06
0.000183649
2.63253e-06
0.00018448
2.47396e-06
0.000185397
2.27683e-06
0.000186389
2.03968e-06
0.000187443
1.76347e-06
1.45201e-06
0.000188542
0.000209742
1.3792e-06
0.00020964
3.22665e-06
0.000209401
4.01622e-06
0.000209075
3.85785e-06
0.000208722
3.40646e-06
0.000208379
3.04967e-06
0.000208058
2.85799e-06
0.000207756
2.77798e-06
0.000207469
2.75158e-06
0.000207191
2.74538e-06
0.00020692
2.74507e-06
0.000206653
2.74592e-06
0.000206388
2.74697e-06
0.000206124
2.74845e-06
0.000205861
2.75085e-06
0.000205597
2.75456e-06
0.000205332
2.75992e-06
0.000205066
2.76713e-06
0.000204799
2.77629e-06
0.00020453
2.78745e-06
0.000204259
2.8006e-06
0.000203987
2.81567e-06
0.000203712
2.83253e-06
0.000203435
2.85099e-06
0.000203155
2.87084e-06
0.000202874
2.89183e-06
0.000202591
2.91365e-06
0.000202307
2.936e-06
0.000202021
2.95857e-06
0.000201733
2.98104e-06
0.000201444
3.00316e-06
0.000201155
3.02466e-06
0.000200864
3.04531e-06
0.000200573
3.06494e-06
0.000200282
3.08338e-06
0.000199991
3.1005e-06
0.0001997
3.11619e-06
0.00019941
3.13039e-06
0.00019912
3.14301e-06
0.000198832
3.15403e-06
0.000198546
3.16343e-06
0.000198261
3.17119e-06
0.000197979
3.17732e-06
0.000197699
3.18182e-06
0.000197423
3.18472e-06
0.000197151
3.18605e-06
0.000196883
3.18586e-06
0.00019662
3.18418e-06
0.000196363
3.18108e-06
0.000196112
3.17661e-06
0.000195868
3.17083e-06
0.000195633
3.1638e-06
0.000195407
3.15557e-06
0.000195191
3.14621e-06
0.000194987
3.13574e-06
0.000194796
3.12419e-06
0.000194619
3.11157e-06
0.000194459
3.09783e-06
0.000194318
3.0829e-06
0.000194198
3.06666e-06
0.000194102
3.04888e-06
0.000194032
3.02926e-06
0.000193993
3.00736e-06
0.000193987
2.98258e-06
0.000194018
2.95416e-06
0.000194092
2.92109e-06
0.000194212
2.8821e-06
0.000194384
2.83565e-06
0.000194613
2.77987e-06
0.000194903
2.71256e-06
0.000195259
2.63119e-06
0.000195686
2.53292e-06
0.000196185
2.41469e-06
0.00019676
2.27328e-06
0.00019741
2.10559e-06
0.000198134
1.90883e-06
0.000198927
1.68098e-06
0.000199783
1.42125e-06
0.000200692
1.13066e-06
0.000201643
8.12193e-07
4.71496e-07
0.000202623
0.000224436
1.37334e-06
0.000224347
3.31636e-06
0.000224122
4.24053e-06
0.000223806
4.1748e-06
0.000223454
3.75769e-06
0.000223107
3.39748e-06
0.000222776
3.1882e-06
0.000222464
3.08981e-06
0.000222167
3.04886e-06
0.00022188
3.03241e-06
0.0002216
3.02528e-06
0.000221324
3.02178e-06
0.000221051
3.02023e-06
0.000220779
3.02037e-06
0.000220507
3.02233e-06
0.000220236
3.0263e-06
0.000219963
3.03244e-06
0.000219689
3.04086e-06
0.000219414
3.05156e-06
0.000219137
3.06449e-06
0.000218858
3.07957e-06
0.000218577
3.09665e-06
0.000218294
3.11556e-06
0.000218009
3.13604e-06
0.000217722
3.15783e-06
0.000217433
3.18063e-06
0.000217143
3.20411e-06
0.000216851
3.22794e-06
0.000216558
3.25178e-06
0.000216263
3.27531e-06
0.000215968
3.29824e-06
0.000215673
3.32031e-06
0.000215377
3.34127e-06
0.000215081
3.36092e-06
0.000214785
3.37909e-06
0.00021449
3.39563e-06
0.000214196
3.41041e-06
0.000213903
3.42332e-06
0.000213611
3.4343e-06
0.000213322
3.44327e-06
0.000213035
3.45018e-06
0.000212752
3.45499e-06
0.000212471
3.45766e-06
0.000212195
3.45818e-06
0.000211923
3.45652e-06
0.000211656
3.45265e-06
0.000211396
3.44657e-06
0.000211142
3.43827e-06
0.000210895
3.42772e-06
0.000210657
3.41491e-06
0.000210428
3.3998e-06
0.000210209
3.38235e-06
0.000210002
3.3625e-06
0.000209808
3.34018e-06
0.000209629
3.31528e-06
0.000209465
3.28767e-06
0.00020932
3.25718e-06
0.000209194
3.2236e-06
0.00020909
3.18664e-06
0.000209011
3.14595e-06
0.000208958
3.10111e-06
0.000208936
3.05158e-06
0.000208947
2.99671e-06
0.000208994
2.93569e-06
0.00020908
2.86758e-06
0.00020921
2.79126e-06
0.000209387
2.70542e-06
0.000209614
2.60855e-06
0.000209895
2.49898e-06
0.000210232
2.37483e-06
0.00021063
2.23411e-06
0.000211088
2.07471e-06
0.000211608
1.8945e-06
0.00021219
1.69146e-06
0.000212831
1.46382e-06
0.00021353
1.21031e-06
0.00021428
9.30484e-07
0.000215077
6.25082e-07
0.000215911
2.96622e-07
0.000216773
-5.05551e-08
-4.10159e-07
0.000217655
0.000240157
1.36707e-06
0.000240076
3.39759e-06
0.000239864
4.45231e-06
0.000239557
4.48174e-06
0.00023921
4.10488e-06
0.00023886
3.74715e-06
0.000238524
3.5243e-06
0.000238205
3.40956e-06
0.000237899
3.35478e-06
0.000237603
3.3281e-06
0.000237314
3.31393e-06
0.00023703
3.30583e-06
0.000236749
3.30145e-06
0.000236469
3.30008e-06
0.00023619
3.30151e-06
0.000235911
3.3057e-06
0.000235631
3.31263e-06
0.000235349
3.32225e-06
0.000235066
3.33447e-06
0.000234782
3.34915e-06
0.000234495
3.36611e-06
0.000234207
3.38514e-06
0.000233916
3.40597e-06
0.000233624
3.42832e-06
0.00023333
3.45186e-06
0.000233034
3.47624e-06
0.000232737
3.50111e-06
0.000232439
3.52611e-06
0.00023214
3.55087e-06
0.00023184
3.57507e-06
0.00023154
3.59838e-06
0.00023124
3.62054e-06
0.00023094
3.64127e-06
0.00023064
3.66037e-06
0.000230342
3.67764e-06
0.000230044
3.6929e-06
0.000229749
3.70601e-06
0.000229455
3.71684e-06
0.000229164
3.72528e-06
0.000228876
3.73124e-06
0.000228592
3.73463e-06
0.000228311
3.73537e-06
0.000228036
3.73339e-06
0.000227765
3.72861e-06
0.000227501
3.72098e-06
0.000227243
3.71041e-06
0.000226993
3.69683e-06
0.000226751
3.68015e-06
0.000226518
3.66028e-06
0.000226296
3.63711e-06
0.000226085
3.61051e-06
0.000225887
3.58035e-06
0.000225703
3.54645e-06
0.000225535
3.50862e-06
0.000225384
3.46663e-06
0.000225251
3.42023e-06
0.000225139
3.36909e-06
0.00022505
3.31287e-06
0.000224985
3.25113e-06
0.000224948
3.18338e-06
0.00022494
3.10907e-06
0.000224964
3.02753e-06
0.000225023
2.93801e-06
0.000225119
2.83966e-06
0.000225255
2.73151e-06
0.000225434
2.6125e-06
0.000225658
2.48145e-06
0.000225929
2.33708e-06
0.00022625
2.17805e-06
0.000226622
2.00296e-06
0.000227046
1.81037e-06
0.000227521
1.59892e-06
0.000228048
1.36731e-06
0.000228625
1.11446e-06
0.00022925
8.39616e-07
0.000229917
5.42537e-07
0.000230624
2.23928e-07
0.000231364
-1.14446e-07
0.000232129
-4.69286e-07
0.000232915
-8.35782e-07
-1.20768e-06
0.000233712
0.000256977
1.36224e-06
0.000256901
3.47368e-06
0.0002567
4.65364e-06
0.000256403
4.77855e-06
0.000256062
4.44618e-06
0.000255713
4.09612e-06
0.000255373
3.86377e-06