/*--------------------------------*- C++ -*----------------------------------*\
| =========                 |                                                 |
| \\      /  F ield         | OpenFOAM: The Open Source CFD Toolbox           |
|  \\    /   O peration     | Version:  2106                                  |
|   \\  /    A nd           | Website:  www.openfoam.com                      |
|    \\/     M anipulation  |                                                 |
\*---------------------------------------------------------------------------*/
FoamFile
{
    version     2.0;
    format      ascii;
    arch        "LSB;label=32;scalar=64";
    class       volScalarField;
    location    "0.2";
    object      T;
}
// * * * * * * * * * * * * * * * * * * * * * * * * * * * * * * * * * * * * * //

dimensions      [0 0 0 1 0 0 0];

internalField   nonuniform List<scalar> 
12013
(
300
300
300
300
300
300
300
300
300
300
300
300
300
300
300
300
300
300
300
300
300
300
300
300
300
300.001
300.001
300.001
300.001
300.002
300.002
300.003
300.004
300.005
300.006
300.007
300.009
300.011
300.013
300.015
300.018
300.022
300.025
300.03
300.035
300.04
300.046
300.053
300.061
300.069
300.079
300.089
300.1
300.112
300.126
300.14
300.156
300.174
300.192
300.212
300.234
300.257
300.282
300.309
300.337
300.368
300.401
300.436
300.474
300.514
300.557
300.603
300.653
300.707
300.765
300.828
300.898
300.975
301.062
301.163
301.288
300
300
300
300
300
300
300
300
300
300
300
300
300
300
300
300
300
300
300
300
300
300
300
300
300
300.001
300.001
300.001
300.001
300.002
300.002
300.003
300.004
300.005
300.006
300.007
300.009
300.011
300.013
300.015
300.018
300.022
300.025
300.03
300.035
300.04
300.046
300.053
300.061
300.069
300.078
300.089
300.1
300.112
300.126
300.14
300.156
300.173
300.192
300.212
300.233
300.257
300.282
300.308
300.337
300.367
300.4
300.435
300.473
300.513
300.556
300.602
300.651
300.704
300.761
300.824
300.892
300.967
301.05
301.143
301.248
300
300
300
300
300
300
300
300
300
300
300
300
300
300
300
300
300
300
300
300
300
300
300
300
300
300.001
300.001
300.001
300.001
300.002
300.002
300.003
300.004
300.005
300.006
300.007
300.009
300.011
300.013
300.015
300.018
300.022
300.025
300.03
300.035
300.04
300.046
300.053
300.061
300.069
300.078
300.088
300.1
300.112
300.125
300.14
300.156
300.173
300.191
300.211
300.233
300.256
300.281
300.307
300.335
300.366
300.398
300.433
300.47
300.51
300.552
300.597
300.646
300.698
300.754
300.814
300.879
300.95
301.027
301.109
301.196
300
300
300
300
300
300
300
300
300
300
300
300
300
300
300
300
300
300
300
300
300
300
300
300
300
300.001
300.001
300.001
300.001
300.002
300.002
300.003
300.004
300.005
300.006
300.007
300.009
300.011
300.013
300.015
300.018
300.022
300.025
300.03
300.034
300.04
300.046
300.053
300.06
300.069
300.078
300.088
300.099
300.111
300.125
300.139
300.155
300.172
300.19
300.21
300.231
300.254
300.279
300.305
300.333
300.363
300.395
300.43
300.466
300.505
300.546
300.591
300.638
300.688
300.742
300.8
300.861
300.926
300.995
301.067
301.141
300
300
300
300
300
300
300
300
300
300
300
300
300
300
300
300
300
300
300
300
300
300
300
300
300
300.001
300.001
300.001
300.001
300.002
300.002
300.003
300.004
300.005
300.006
300.007
300.009
300.011
300.013
300.015
300.018
300.021
300.025
300.029
300.034
300.04
300.046
300.052
300.06
300.068
300.077
300.088
300.099
300.111
300.124
300.138
300.154
300.171
300.189
300.208
300.229
300.252
300.276
300.302
300.33
300.359
300.391
300.424
300.46
300.498
300.538
300.581
300.627
300.675
300.726
300.78
300.837
300.896
300.958
301.021
301.084
300
300
300
300
300
300
300
300
300
300
300
300
300
300
300
300
300
300
300
300
300
300
300
300
300
300.001
300.001
300.001
300.001
300.002
300.002
300.003
300.004
300.005
300.006
300.007
300.009
300.011
300.013
300.015
300.018
300.021
300.025
300.029
300.034
300.039
300.045
300.052
300.059
300.068
300.077
300.087
300.098
300.11
300.123
300.137
300.152
300.169
300.187
300.206
300.227
300.249
300.273
300.298
300.325
300.354
300.385
300.418
300.452
300.489
300.528
300.569
300.612
300.658
300.706
300.756
300.808
300.862
300.917
300.972
301.027
300
300
300
300
300
300
300
300
300
300
300
300
300
300
300
300
300
300
300
300
300
300
300
300
300
300.001
300.001
300.001
300.001
300.002
300.002
300.003
300.004
300.005
300.006
300.007
300.009
300.011
300.013
300.015
300.018
300.021
300.025
300.029
300.034
300.039
300.045
300.051
300.059
300.067
300.076
300.086
300.097
300.108
300.121
300.135
300.15
300.167
300.184
300.203
300.223
300.245
300.268
300.293
300.319
300.347
300.377
300.409
300.442
300.477
300.514
300.553
300.594
300.637
300.681
300.727
300.775
300.823
300.872
300.921
300.969
300
300
300
300
300
300
300
300
300
300
300
300
300
300
300
300
300
300
300
300
300
300
300
300
300
300.001
300.001
300.001
300.001
300.002
300.002
300.003
300.004
300.005
300.006
300.007
300.009
300.01
300.012
300.015
300.018
300.021
300.024
300.029
300.033
300.038
300.044
300.051
300.058
300.066
300.075
300.085
300.095
300.107
300.119
300.133
300.148
300.164
300.181
300.199
300.219
300.24
300.263
300.287
300.312
300.339
300.368
300.398
300.43
300.463
300.498
300.535
300.573
300.612
300.653
300.695
300.738
300.782
300.825
300.868
300.911
300
300
300
300
300
300
300
300
300
300
300
300
300
300
300
300
300
300
300
300
300
300
300
300
300
300.001
300.001
300.001
300.001
300.002
300.002
300.003
300.004
300.005
300.006
300.007
300.008
300.01
300.012
300.015
300.017
300.021
300.024
300.028
300.033
300.038
300.044
300.05
300.057
300.065
300.073
300.083
300.093
300.105
300.117
300.13
300.145
300.16
300.177
300.195
300.214
300.234
300.256
300.279
300.303
300.329
300.356
300.385
300.415
300.446
300.479
300.513
300.549
300.585
300.622
300.66
300.699
300.738
300.776
300.815
300.852
300
300
300
300
300
300
300
300
300
300
300
300
300
300
300
300
300
300
300
300
300
300
300
300
300
300.001
300.001
300.001
300.001
300.002
300.002
300.003
300.004
300.005
300.006
300.007
300.008
300.01
300.012
300.014
300.017
300.02
300.024
300.028
300.032
300.037
300.043
300.049
300.056
300.063
300.072
300.081
300.091
300.102
300.114
300.127
300.141
300.156
300.172
300.189
300.207
300.227
300.248
300.27
300.293
300.317
300.343
300.37
300.398
300.427
300.458
300.489
300.522
300.555
300.589
300.623
300.657
300.692
300.726
300.76
300.794
300
300
300
300
300
300
300
300
300
300
300
300
300
300
300
300
300
300
300
300
300
300
300
300
300
300.001
300.001
300.001
300.001
300.002
300.002
300.003
300.004
300.004
300.005
300.007
300.008
300.01
300.012
300.014
300.017
300.02
300.023
300.027
300.031
300.036
300.042
300.048
300.054
300.062
300.07
300.079
300.089
300.099
300.111
300.123
300.136
300.151
300.166
300.182
300.2
300.219
300.238
300.259
300.281
300.304
300.328
300.353
300.379
300.406
300.434
300.463
300.492
300.522
300.553
300.583
300.614
300.645
300.675
300.705
300.735
300
300
300
300
300
300
300
300
300
300
300
300
300
300
300
300
300
300
300
300
300
300
300
300
300
300.001
300.001
300.001
300.001
300.002
300.002
300.003
300.003
300.004
300.005
300.007
300.008
300.01
300.011
300.014
300.016
300.019
300.022
300.026
300.03
300.035
300.04
300.046
300.053
300.06
300.068
300.076
300.085
300.096
300.107
300.118
300.131
300.145
300.159
300.175
300.191
300.209
300.227
300.247
300.267
300.289
300.311
300.334
300.358
300.383
300.408
300.434
300.461
300.488
300.515
300.542
300.57
300.597
300.624
300.65
300.676
300
300
300
300
300
300
300
300
300
300
300
300
300
300
300
300
300
300
300
300
300
300
300
300
300
300.001
300.001
300.001
300.001
300.002
300.002
300.003
300.003
300.004
300.005
300.006
300.008
300.009
300.011
300.013
300.016
300.018
300.022
300.025
300.029
300.034
300.039
300.044
300.051
300.057
300.065
300.073
300.082
300.092
300.102
300.113
300.125
300.138
300.152
300.166
300.182
300.198
300.215
300.233
300.252
300.272
300.292
300.313
300.335
300.357
300.38
300.404
300.428
300.452
300.476
300.5
300.524
300.548
300.572
300.595
300.618
300
300
300
300
300
300
300
300
300
300
300
300
300
300
300
300
300
300
300
300
300
300
300
300
300
300
300.001
300.001
300.001
300.002
300.002
300.003
300.003
300.004
300.005
300.006
300.007
300.009
300.011
300.013
300.015
300.018
300.021
300.024
300.028
300.032
300.037
300.042
300.048
300.055
300.062
300.07
300.078
300.087
300.097
300.107
300.118
300.13
300.143
300.157
300.171
300.186
300.202
300.218
300.236
300.253
300.272
300.291
300.311
300.331
300.351
300.372
300.393
300.415
300.436
300.457
300.478
300.499
300.52
300.541
300.561
300
300
300
300
300
300
300
300
300
300
300
300
300
300
300
300
300
300
300
300
300
300
300
300
300
300
300.001
300.001
300.001
300.002
300.002
300.002
300.003
300.004
300.005
300.006
300.007
300.009
300.01
300.012
300.014
300.017
300.02
300.023
300.027
300.031
300.035
300.04
300.046
300.052
300.058
300.066
300.073
300.082
300.091
300.101
300.111
300.122
300.134
300.146
300.159
300.173
300.187
300.202
300.218
300.234
300.251
300.268
300.285
300.303
300.321
300.34
300.358
300.377
300.395
300.414
300.433
300.451
300.469
300.487
300.505
300
300
300
300
300
300
300
300
300
300
300
300
300
300
300
300
300
300
300
300
300
300
300
300
300
300
300.001
300.001
300.001
300.001
300.002
300.002
300.003
300.004
300.005
300.006
300.007
300.008
300.01
300.011
300.014
300.016
300.019
300.022
300.025
300.029
300.033
300.038
300.043
300.048
300.055
300.061
300.068
300.076
300.085
300.093
300.103
300.113
300.124
300.135
300.147
300.159
300.172
300.185
300.199
300.214
300.228
300.243
300.259
300.275
300.29
300.307
300.323
300.339
300.355
300.371
300.387
300.403
300.419
300.434
300.45
300
300
300
300
300
300
300
300
300
300
300
300
300
300
300
300
300
300
300
300
300
300
300
300
300
300
300.001
300.001
300.001
300.001
300.002
300.002
300.003
300.003
300.004
300.005
300.006
300.008
300.009
300.011
300.013
300.015
300.017
300.02
300.023
300.027
300.031
300.035
300.04
300.045
300.05
300.057
300.063
300.07
300.078
300.086
300.094
300.103
300.113
300.123
300.134
300.145
300.156
300.168
300.18
300.193
300.206
300.219
300.232
300.246
300.26
300.273
300.287
300.301
300.315
300.329
300.343
300.357
300.37
300.383
300.396
300
300
300
300
300
300
300
300
300
300
300
300
300
300
300
300
300
300
300
300
300
300
300
300
300
300
300
300.001
300.001
300.001
300.002
300.002
300.003
300.003
300.004
300.005
300.006
300.007
300.008
300.01
300.012
300.014
300.016
300.019
300.021
300.025
300.028
300.032
300.036
300.041
300.046
300.052
300.057
300.064
300.071
300.078
300.085
300.093
300.102
300.111
300.12
300.13
300.14
300.15
300.161
300.171
300.183
300.194
300.205
300.217
300.229
300.241
300.253
300.265
300.277
300.288
300.3
300.312
300.323
300.334
300.345
300
300
300
300
300
300
300
300
300
300
300
300
300
300
300
300
300
300
300
300
300
300
300
300
300
300
300
300.001
300.001
300.001
300.001
300.002
300.002
300.003
300.004
300.004
300.005
300.006
300.008
300.009
300.011
300.013
300.015
300.017
300.019
300.022
300.026
300.029
300.033
300.037
300.041
300.046
300.052
300.057
300.063
300.069
300.076
300.083
300.09
300.098
300.106
300.114
300.123
300.132
300.141
300.15
300.16
300.169
300.179
300.189
300.199
300.209
300.219
300.229
300.239
300.249
300.259
300.269
300.278
300.288
300.297
300
300
300
300
300
300
300
300
300
300
300
300
300
300
300
300
300
300
300
300
300
300
300
300
300
300
300
300.001
300.001
300.001
300.001
300.002
300.002
300.003
300.003
300.004
300.005
300.006
300.007
300.008
300.01
300.011
300.013
300.015
300.017
300.02
300.023
300.026
300.029
300.033
300.037
300.041
300.045
300.05
300.055
300.061
300.067
300.073
300.079
300.085
300.092
300.099
300.107
300.114
300.122
300.13
300.138
300.146
300.154
300.162
300.17
300.179
300.187
300.195
300.204
300.212
300.22
300.228
300.236
300.244
300.251
300
300
300
300
300
300
300
300
300
300
300
300
300
300
300
300
300
300
300
300
300
300
300
300
300
300
300
300
300.001
300.001
300.001
300.001
300.002
300.002
300.003
300.003
300.004
300.005
300.006
300.007
300.008
300.01
300.011
300.013
300.015
300.017
300.02
300.023
300.025
300.029
300.032
300.035
300.039
300.043
300.048
300.052
300.057
300.062
300.068
300.073
300.079
300.085
300.091
300.097
300.103
300.11
300.116
300.123
300.13
300.136
300.143
300.15
300.157
300.164
300.17
300.177
300.184
300.19
300.197
300.203
300.209
300
300
300
300
300
300
300
300
300
300
300
300
300
300
300
300
300
300
300
300
300
300
300
300
300
300
300
300
300.001
300.001
300.001
300.001
300.002
300.002
300.002
300.003
300.004
300.004
300.005
300.006
300.007
300.009
300.01
300.011
300.013
300.015
300.017
300.019
300.022
300.024
300.027
300.03
300.033
300.037
300.04
300.044
300.048
300.052
300.057
300.061
300.066
300.071
300.076
300.081
300.086
300.091
300.096
300.102
300.107
300.113
300.118
300.124
300.129
300.135
300.14
300.145
300.151
300.156
300.161
300.166
300.171
300
300
300
300
300
300
300
300
300
300
300
300
300
300
300
300
300
300
300
300
300
300
300
300
300
300
300
300
300
300.001
300.001
300.001
300.001
300.002
300.002
300.003
300.003
300.004
300.004
300.005
300.006
300.007
300.008
300.01
300.011
300.013
300.014
300.016
300.018
300.02
300.023
300.025
300.028
300.03
300.033
300.036
300.04
300.043
300.047
300.05
300.054
300.058
300.062
300.066
300.07
300.074
300.078
300.082
300.087
300.091
300.095
300.1
300.104
300.108
300.112
300.117
300.121
300.125
300.129
300.133
300.137
300
300
300
300
300
300
300
300
300
300
300
300
300
300
300
300
300
300
300
300
300
300
300
300
300
300
300
300
300
300
300.001
300.001
300.001
300.001
300.002
300.002
300.003
300.003
300.004
300.004
300.005
300.006
300.007
300.008
300.009
300.01
300.012
300.013
300.015
300.016
300.018
300.02
300.022
300.025
300.027
300.029
300.032
300.035
300.037
300.04
300.043
300.046
300.049
300.052
300.055
300.059
300.062
300.065
300.068
300.072
300.075
300.078
300.082
300.085
300.088
300.092
300.095
300.098
300.101
300.104
300.107
300
300
300
300
300
300
300
300
300
300
300
300
300
300
300
300
300
300
300
300
300
300
300
300
300
300
300
300
300
300
300
300.001
300.001
300.001
300.001
300.002
300.002
300.002
300.003
300.003
300.004
300.005
300.005
300.006
300.007
300.008
300.009
300.01
300.012
300.013
300.014
300.016
300.018
300.019
300.021
300.023
300.025
300.027
300.029
300.031
300.033
300.036
300.038
300.04
300.043
300.045
300.048
300.05
300.053
300.055
300.058
300.06
300.062
300.065
300.067
300.07
300.072
300.075
300.077
300.079
300.082
300
300
300
300
300
300
300
300
300
300
300
300
300
300
300
300
300
300
300
300
300
300
300
300
300
300
300
300
300
300
300
300
300.001
300.001
300.001
300.001
300.001
300.002
300.002
300.003
300.003
300.004
300.004
300.005
300.005
300.006
300.007
300.008
300.009
300.01
300.011
300.012
300.013
300.015
300.016
300.017
300.019
300.02
300.022
300.023
300.025
300.027
300.028
300.03
300.032
300.034
300.035
300.037
300.039
300.041
300.043
300.045
300.046
300.048
300.05
300.052
300.053
300.055
300.057
300.059
300.06
300
300
300
300
300
300
300
300
300
300
300
300
300
300
300
300
300
300
300
300
300
300
300
300
300
300
300
300
300
300
300
300
300
300
300.001
300.001
300.001
300.001
300.002
300.002
300.002
300.003
300.003
300.003
300.004
300.005
300.005
300.006
300.006
300.007
300.008
300.009
300.01
300.011
300.012
300.013
300.014
300.015
300.016
300.017
300.018
300.019
300.021
300.022
300.023
300.024
300.026
300.027
300.028
300.029
300.031
300.032
300.033
300.035
300.036
300.037
300.038
300.04
300.041
300.042
300.043
300
300
300
300
300
300
300
300
300
300
300
300
300
300
300
300
300
300
300
300
300
300
300
300
300
300
300
300
300
300
300
300
300
300
300
300
300.001
300.001
300.001
300.001
300.001
300.002
300.002
300.002
300.003
300.003
300.004
300.004
300.005
300.005
300.006
300.006
300.007
300.007
300.008
300.009
300.01
300.01
300.011
300.012
300.013
300.013
300.014
300.015
300.016
300.017
300.018
300.019
300.019
300.02
300.021
300.022
300.023
300.024
300.025
300.026
300.026
300.027
300.028
300.029
300.03
300
300
300
300
300
300
300
300
300
300
300
300
300
300
300
300
300
300
300
300
300
300
300
300
300
300
300
300
300
300
300
300
300
300
300
300
300
300
300.001
300.001
300.001
300.001
300.001
300.002
300.002
300.002
300.002
300.003
300.003
300.003
300.004
300.004
300.004
300.005
300.005
300.006
300.006
300.007
300.007
300.008
300.008
300.009
300.009
300.01
300.011
300.011
300.012
300.012
300.013
300.013
300.014
300.015
300.015
300.016
300.016
300.017
300.017
300.018
300.018
300.019
300.019
300
300
300
300
300
300
300
300
300
300
300
300
300
300
300
300
300
300
300
300
300
300
300
300
300
300
300
300
300
300
300
300
300
300
300
300
300
300
300
300
300
300.001
300.001
300.001
300.001
300.001
300.001
300.002
300.002
300.002
300.002
300.003
300.003
300.003
300.003
300.004
300.004
300.004
300.005
300.005
300.005
300.006
300.006
300.006
300.007
300.007
300.007
300.008
300.008
300.008
300.009
300.009
300.009
300.01
300.01
300.01
300.011
300.011
300.012
300.012
300.012
300
300
300
300
300
300
300
300
300
300
300
300
300
300
300
300
300
300
300
300
300
300
300
300
300
300
300
300
300
300
300
300
300
300
300
300
300
300
300
300
300
300
300
300
300
300.001
300.001
300.001
300.001
300.001
300.001
300.001
300.002
300.002
300.002
300.002
300.002
300.002
300.003
300.003
300.003
300.003
300.003
300.004
300.004
300.004
300.004
300.004
300.005
300.005
300.005
300.005
300.006
300.006
300.006
300.006
300.006
300.007
300.007
300.007
300.007
300
300
300
300
300
300
300
300
300
300
300
300
300
300
300
300
300
300
300
300
300
300
300
300
300
300
300
300
300
300
300
300
300
300
300
300
300
300
300
300
300
300
300
300
300
300
300
300
300
300
300
300.001
300.001
300.001
300.001
300.001
300.001
300.001
300.001
300.001
300.002
300.002
300.002
300.002
300.002
300.002
300.002
300.002
300.002
300.003
300.003
300.003
300.003
300.003
300.003
300.003
300.003
300.004
300.004
300.004
300.004
300
300
300
300
300
300
300
300
300
300
300
300
300
300
300
300
300
300
300
300
299.999
299.999
299.999
299.999
299.999
299.999
300
300
300
300
300
300
300
300
300
300
300
300
300
300
300
300
300
300
300
300
300
300
300
300
300
300
300
300
300
300
300
300
300
300.001
300.001
300.001
300.001
300.001
300.001
300.001
300.001
300.001
300.001
300.001
300.001
300.001
300.001
300.001
300.001
300.002
300.002
300.002
300.002
300.002
300.002
300
300
300
300
300
300
300
300
300
300
300
300
300
300
299.999
299.999
299.999
299.999
299.999
299.999
299.999
299.999
299.999
299.999
299.999
299.999
299.999
299.999
299.999
299.999
299.999
299.999
299.999
299.999
299.999
299.999
299.999
300
300
300
300
300
300
300
300
300
300
300
300
300
300
300
300
300
300
300
300
300
300
300
300
300
300
300
300
300
300
300
300
300
300
300
300
300
300
300
300
300.001
300.001
300.001
300.001
300
300
300
300
300
300
300
300
300
300
300
300
299.999
299.999
299.999
299.999
299.999
299.999
299.999
299.999
299.999
299.999
299.999
299.999
299.999
299.999
299.999
299.999
299.999
299.999
299.999
299.999
299.999
299.999
299.999
299.999
299.999
299.999
299.999
299.999
299.999
299.999
299.999
299.999
299.999
299.999
299.999
299.999
300
300
300
300
300
300
300
300
300
300
300
300
300
300
300
300
300
300
300
300
300
300
300
300
300
300
300
300
300
300
300
300
300
300
300
300
300
300
300
300
300
300
300
299.999
299.999
299.999
299.999
299.999
299.999
299.999
299.999
299.999
299.999
299.999
299.999
299.999
299.999
299.999
299.999
299.999
299.999
299.999
299.999
299.999
299.999
299.999
299.999
299.999
299.999
299.999
299.999
299.999
299.999
299.999
299.999
299.999
299.999
299.999
299.999
299.999
299.999
299.999
299.999
299.999
299.999
299.999
299.999
299.999
299.999
299.999
299.999
299.999
299.999
299.999
299.999
299.999
299.999
299.999
299.999
300
300
300
300
300
300
300
300
300
300
300
300
300
300
300
300
300
300
300
300
300
300
300
300
299.999
299.999
299.999
299.999
299.999
299.999
299.999
299.999
299.999
299.999
299.999
299.999
299.999
299.999
299.999
299.999
299.999
299.999
299.999
299.999
299.999
299.999
299.999
299.999
299.999
299.999
299.999
299.999
299.999
299.999
299.999
299.999
299.999
299.999
299.999
299.999
299.999
299.999
299.999
299.999
299.999
299.999
299.999
299.999
299.999
299.999
299.999
299.999
299.999
299.999
299.999
299.999
299.999
299.999
299.999
299.999
299.999
299.999
299.999
299.999
299.999
299.999
299.999
299.999
299.999
299.999
299.999
299.999
299.999
299.999
299.999
299.999
300
300
300
300
300
300
300
300
299.999
299.999
299.999
299.999
299.999
299.999
299.999
299.999
299.999
299.999
299.999
299.999
299.999
299.999
299.999
299.999
299.999
299.999
299.999
299.999
299.999
299.999
299.999
299.999
299.999
299.999
299.999
299.999
299.999
299.999
299.999
299.999
299.999
299.999
299.999
299.999
299.999
299.999
299.999
299.999
299.999
299.999
299.999
299.999
299.999
299.999
299.999
299.999
299.999
299.999
299.999
299.999
299.999
299.999
299.999
299.999
299.999
299.999
299.999
299.999
299.999
299.999
299.999
299.999
299.999
299.999
299.999
299.999
299.999
299.999
299.999
299.999
299.999
300
300
300
300
300
300
300
300
299.999
299.999
299.999
299.999
299.999
299.999
299.999
299.999
299.999
299.999
299.999
299.999
299.999
299.999
299.999
299.999
299.999
299.999
299.999
299.999
299.999
299.999
299.999
299.999
299.999
299.999
299.999
299.999
299.999
299.999
299.999
299.999
299.999
299.999
299.999
299.999
299.999
299.999
299.999
299.999
299.999
299.999
299.999
299.999
299.999
299.999
299.999
299.999
299.999
299.999
299.999
299.999
299.999
299.999
299.999
299.999
299.999
299.999
299.999
299.999
299.999
299.999
299.999
299.999
299.999
299.999
299.999
299.999
299.999
299.999
299.999
299.999
299.999
300
300
300
300
300
300
300
299.999
299.999
299.999
299.999
299.999
299.999
299.999
299.999
299.999
299.999
299.999
299.999
299.999
299.999
299.999
299.999
299.999
299.999
299.999
299.999
299.999
299.999
299.999
299.999
299.999
299.999
299.999
299.999
299.999
299.999
299.999
299.999
299.999
299.999
299.999
299.999
299.999
299.999
299.999
299.999
299.999
299.999
299.999
299.999
299.999
299.999
299.999
299.999
299.999
299.999
299.999
299.999
299.999
299.999
299.999
299.999
299.999
299.999
299.999
299.999
299.999
299.999
299.999
299.999
299.999
299.999
299.999
299.999
299.999
299.999
299.999
299.999
299.999
299.999
300
300
300
300
300
300
300
299.999
299.999
299.999
299.999
299.999
299.999
299.999
299.999
299.999
299.999
299.999
299.999
299.999
299.999
299.999
299.999
299.999
299.999
299.999
299.999
299.999
299.999
299.999
299.999
299.999
299.999
299.999
299.999
299.999
299.999
299.999
299.999
299.999
299.999
299.999
299.999
299.999
299.999
299.999
299.999
299.999
299.999
299.999
299.999
299.999
299.999
299.999
299.999
299.999
299.999
299.999
299.999
299.999
299.999
299.999
299.999
299.999
299.999
299.999
299.999
299.999
299.999
299.999
299.999
299.999
299.999
299.999
299.999
299.999
299.999
299.999
299.999
299.999
299.999
301.457
301.565
301.627
301.684
301.732
301.77
301.794
301.82
301.847
301.871
301.89
301.911
301.932
301.951
301.97
301.988
302.004
302.019
302.033
302.048
302.061
302.074
302.087
302.1
302.112
302.123
302.134
302.144
302.154
302.164
302.173
302.181
302.19
302.197
302.205
302.212
302.219
302.225
302.232
302.237
302.243
302.248
302.254
302.259
302.264
302.269
302.273
302.277
302.281
302.285
302.288
302.292
302.295
302.298
302.301
302.304
302.307
302.309
302.312
302.314
302.316
302.318
302.319
302.321
302.323
302.324
302.326
302.327
302.329
302.33
302.331
302.332
302.333
302.334
302.334
302.335
302.336
302.336
302.337
302.337
302.337
302.338
302.338
302.338
302.338
302.338
302.338
302.338
302.338
302.338
302.338
302.338
302.338
302.338
302.337
302.337
302.337
302.337
302.336
302.336
302.336
302.335
302.335
302.335
302.334
302.334
302.333
302.333
302.333
302.332
302.332
302.332
302.332
302.332
302.332
302.332
302.332
302.332
302.332
302.332
302.332
302.332
302.332
302.332
302.332
302.333
302.333
302.333
302.333
302.333
302.332
302.332
302.332
302.331
302.33
302.329
302.328
302.327
302.325
302.323
302.321
302.319
302.316
302.313
302.309
302.305
302.3
302.294
302.287
302.278
302.266
302.252
302.237
302.218
302.194
302.163
302.127
302.056
301.983
301.879
301.725
301.362
301.455
301.526
301.585
301.634
301.675
301.707
301.737
301.764
301.79
301.812
301.834
301.856
301.876
301.895
301.913
301.93
301.946
301.961
301.975
301.989
302.003
302.016
302.029
302.041
302.052
302.063
302.074
302.084
302.093
302.102
302.111
302.119
302.127
302.135
302.142
302.149
302.155
302.162
302.167
302.173
302.178
302.184
302.189
302.194
302.198
302.203
302.207
302.211
302.215
302.218
302.221
302.224
302.228
302.23
302.233
302.236
302.238
302.241
302.243
302.245
302.247
302.249
302.25
302.252
302.253
302.255
302.256
302.257
302.259
302.26
302.261
302.261
302.262
302.263
302.264
302.264
302.265
302.265
302.266
302.266
302.266
302.266
302.267
302.267
302.267
302.267
302.267
302.267
302.267
302.267
302.266
302.266
302.266
302.266
302.266
302.265
302.265
302.265
302.265
302.264
302.264
302.264
302.263
302.263
302.262
302.262
302.262
302.262
302.261
302.261
302.261
302.261
302.26
302.26
302.26
302.26
302.26
302.26
302.26
302.261
302.261
302.261
302.261
302.261
302.261
302.261
302.261
302.261
302.261
302.261
302.261
302.26
302.26
302.259
302.258
302.257
302.256
302.254
302.252
302.25
302.248
302.245
302.242
302.239
302.234
302.23
302.224
302.217
302.208
302.196
302.183
302.167
302.148
302.124
302.093
302.054
301.986
301.909
301.801
301.633
301.284
301.364
301.432
301.49
301.539
301.582
301.618
301.65
301.68
301.706
301.731
301.754
301.776
301.797
301.817
301.836
301.853
301.869
301.885
301.9
301.914
301.928
301.941
301.954
301.966
301.978
301.989
302
302.01
302.019
302.029
302.037
302.046
302.054
302.061
302.068
302.075
302.082
302.088
302.094
302.1
302.105
302.11
302.115
302.12
302.125
302.129
302.133
302.137
302.141
302.144
302.147
302.15
302.153
302.156
302.159
302.162
302.164
302.166
302.169
302.171
302.172
302.174
302.176
302.177
302.179
302.18
302.181
302.183
302.184
302.185
302.186
302.187
302.187
302.188
302.189
302.189
302.19
302.19
302.191
302.191
302.191
302.191
302.192
302.192
302.192
302.192
302.192
302.192
302.192
302.192
302.191
302.191
302.191
302.191
302.191
302.191
302.19
302.19
302.19
302.189
302.189
302.189
302.188
302.188
302.188
302.187
302.187
302.187
302.186
302.186
302.186
302.186
302.186
302.186
302.186
302.186
302.186
302.186
302.186
302.186
302.186
302.186
302.186
302.186
302.186
302.186
302.187
302.186
302.186
302.186
302.186
302.185
302.185
302.184
302.183
302.182
302.181
302.18
302.178
302.176
302.174
302.171
302.168
302.165
302.161
302.156
302.15
302.143
302.134
302.123
302.11
302.094
302.075
302.051
302.019
301.978
301.912
301.833
301.721
301.546
301.213
301.282
301.344
301.399
301.448
301.491
301.528
301.562
301.593
301.621
301.647
301.671
301.694
301.716
301.736
301.755
301.773
301.79
301.806
301.821
301.836
301.85
301.863
301.876
301.889
301.9
301.912
301.922
301.932
301.942
301.951
301.96
301.969
301.977
301.984
301.991
301.998
302.005
302.011
302.017
302.023
302.028
302.033
302.038
302.043
302.047
302.052
302.056
302.06
302.063
302.067
302.07
302.073
302.076
302.079
302.081
302.084
302.086
302.089
302.091
302.093
302.094
302.096
302.098
302.099
302.101
302.102
302.103
302.104
302.105
302.106
302.107
302.108
302.109
302.11
302.11
302.111
302.111
302.112
302.112
302.112
302.113
302.113
302.113
302.113
302.113
302.113
302.113
302.113
302.113
302.113
302.113
302.113
302.113
302.112
302.112
302.112
302.112
302.111
302.111
302.111
302.111
302.11
302.11
302.11
302.109
302.109
302.109
302.108
302.108
302.108
302.108
302.107
302.107
302.107
302.107
302.107
302.107
302.107
302.107
302.107
302.108
302.108
302.108
302.108
302.108
302.108
302.108
302.108
302.108
302.108
302.108
302.107
302.107
302.106
302.105
302.104
302.103
302.101
302.1
302.098
302.096
302.093
302.09
302.087
302.083
302.079
302.073
302.066
302.057
302.046
302.033
302.018
301.999
301.974
301.942
301.9
301.836
301.755
301.64
301.462
301.146
301.206
301.262
301.313
301.359
301.401
301.439
301.474
301.505
301.534
301.561
301.586
301.609
301.631
301.652
301.671
301.69
301.707
301.724
301.739
301.754
301.768
301.782
301.795
301.808
301.819
301.831
301.841
301.852
301.861
301.871
301.88
301.888
301.896
301.904
301.911
301.918
301.924
301.931
301.936
301.942
301.948
301.953
301.958
301.962
301.967
301.971
301.975
301.979
301.982
301.986
301.989
301.992
301.995
301.998
302
302.003
302.005
302.007
302.009
302.011
302.013
302.014
302.016
302.018
302.019
302.02
302.021
302.023
302.024
302.025
302.025
302.026
302.027
302.028
302.028
302.029
302.029
302.03
302.03
302.03
302.031
302.031
302.031
302.031
302.031
302.031
302.031
302.031
302.031
302.031
302.031
302.031
302.03
302.03
302.03
302.03
302.03
302.029
302.029
302.029
302.029
302.028
302.028
302.028
302.027
302.027
302.027
302.026
302.026
302.026
302.026
302.026
302.025
302.025
302.025
302.025
302.025
302.025
302.025
302.025
302.026
302.026
302.026
302.026
302.026
302.026
302.026
302.026
302.026
302.026
302.026
302.025
302.025
302.024
302.023
302.022
302.021
302.02
302.018
302.016
302.014
302.012
302.009
302.006
302.002
301.998
301.992
301.986
301.977
301.966
301.954
301.938
301.919
301.894
301.862
301.819
301.755
301.674
301.558
301.381
301.081
301.133
301.183
301.23
301.274
301.314
301.351
301.385
301.417
301.446
301.473
301.499
301.522
301.545
301.566
301.585
301.604
301.622
301.638
301.654
301.67
301.684
301.698
301.711
301.723
301.735
301.747
301.757
301.768
301.777
301.787
301.796
301.804
301.812
301.82
301.827
301.834
301.84
301.847
301.853
301.858
301.864
301.869
301.874
301.878
301.883
301.887
301.891
301.894
301.898
301.901
301.904
301.907
301.91
301.913
301.915
301.918
301.92
301.922
301.924
301.926
301.928
301.929
301.931
301.932
301.934
301.935
301.936
301.937
301.938
301.939
301.94
301.941
301.941
301.942
301.943
301.943
301.944
301.944
301.944
301.945
301.945
301.945
301.945
301.945
301.945
301.945
301.945
301.945
301.945
301.945
301.945
301.945
301.945
301.945
301.944
301.944
301.944
301.944
301.943
301.943
301.943
301.943
301.942
301.942
301.942
301.941
301.941
301.941
301.941
301.94
301.94
301.94
301.94
301.94