/*--------------------------------*- C++ -*----------------------------------*\
| =========                 |                                                 |
| \\      /  F ield         | OpenFOAM: The Open Source CFD Toolbox           |
|  \\    /   O peration     | Version:  2106                                  |
|   \\  /    A nd           | Website:  www.openfoam.com                      |
|    \\/     M anipulation  |                                                 |
\*---------------------------------------------------------------------------*/
FoamFile
{
    version     2.0;
    format      ascii;
    arch        "LSB;label=32;scalar=64";
    class       volVectorField;
    location    "0.2";
    object      U;
}
// * * * * * * * * * * * * * * * * * * * * * * * * * * * * * * * * * * * * * //

dimensions      [0 1 -1 0 0 0 0];

internalField   nonuniform List<vector> 
12013
(
(0.0999332 2.03599e-05 0)
(0.0996277 3.36603e-05 0)
(0.099251 3.14199e-05 0)
(0.0989799 2.20541e-05 0)
(0.0988075 1.52215e-05 0)
(0.0986794 1.29441e-05 0)
(0.0985572 1.34303e-05 0)
(0.0984255 1.48417e-05 0)
(0.0982825 1.62599e-05 0)
(0.0981307 1.74293e-05 0)
(0.097973 1.83694e-05 0)
(0.0978111 1.91637e-05 0)
(0.0976462 1.98838e-05 0)
(0.0974788 2.05751e-05 0)
(0.0973092 2.12631e-05 0)
(0.0971375 2.19606e-05 0)
(0.0969637 2.26735e-05 0)
(0.096788 2.34045e-05 0)
(0.0966102 2.41539e-05 0)
(0.0964304 2.492e-05 0)
(0.0962486 2.56978e-05 0)
(0.096065 2.64812e-05 0)
(0.0958798 2.72631e-05 0)
(0.0956929 2.80354e-05 0)
(0.0955048 2.87908e-05 0)
(0.0953157 2.95229e-05 0)
(0.0951259 3.02259e-05 0)
(0.0949357 3.08954e-05 0)
(0.0947454 3.15287e-05 0)
(0.0945554 3.21249e-05 0)
(0.094366 3.26858e-05 0)
(0.0941774 3.32141e-05 0)
(0.0939899 3.3714e-05 0)
(0.0938038 3.41906e-05 0)
(0.0936192 3.46506e-05 0)
(0.0934362 3.51025e-05 0)
(0.0932549 3.55538e-05 0)
(0.0930753 3.60127e-05 0)
(0.0928975 3.64875e-05 0)
(0.0927214 3.6987e-05 0)
(0.0925469 3.75187e-05 0)
(0.092374 3.80899e-05 0)
(0.0922024 3.87091e-05 0)
(0.0920321 3.93827e-05 0)
(0.0918629 4.01165e-05 0)
(0.0916945 4.09164e-05 0)
(0.0915268 4.17867e-05 0)
(0.0913597 4.27339e-05 0)
(0.0911928 4.37644e-05 0)
(0.0910259 4.48854e-05 0)
(0.0908588 4.61057e-05 0)
(0.0906913 4.74383e-05 0)
(0.090523 4.88985e-05 0)
(0.0903536 5.05086e-05 0)
(0.0901826 5.22971e-05 0)
(0.0900096 5.43036e-05 0)
(0.089834 5.65786e-05 0)
(0.0896548 5.91881e-05 0)
(0.0894713 6.2217e-05 0)
(0.0892821 6.57768e-05 0)
(0.0890856 7.00094e-05 0)
(0.0888801 7.5099e-05 0)
(0.0886629 8.12878e-05 0)
(0.088431 8.88931e-05 0)
(0.0881804 9.83347e-05 0)
(0.087906 0.000110177 0)
(0.0876014 0.000125189 0)
(0.0872578 0.00014443 0)
(0.086864 0.00016939 0)
(0.0864049 0.0002022 0)
(0.0858599 0.000245972 0)
(0.0852007 0.000305339 0)
(0.0843871 0.000387353 0)
(0.0833618 0.000502969 0)
(0.0820405 0.000669542 0)
(0.0802984 0.000915078 0)
(0.0779459 0.00128556 0)
(0.0746781 0.00185986 0)
(0.070016 0.00279584 0)
(0.0633808 0.00452916 0)
(0.0558193 0.00900626 0)
(0.0999394 6.18134e-05 0)
(0.0996412 0.000102757 0)
(0.0992698 9.62428e-05 0)
(0.0989989 6.77939e-05 0)
(0.0988243 4.69407e-05 0)
(0.0986937 3.99353e-05 0)
(0.0985696 4.13624e-05 0)
(0.0984368 4.56298e-05 0)
(0.0982934 4.99365e-05 0)
(0.0981417 5.3496e-05 0)
(0.0979842 5.63634e-05 0)
(0.0978226 5.87897e-05 0)
(0.0976582 6.09919e-05 0)
(0.0974913 6.31082e-05 0)
(0.0973222 6.5215e-05 0)
(0.0971511 6.7351e-05 0)
(0.0969779 6.9534e-05 0)
(0.0968028 7.17735e-05 0)
(0.0966257 7.40697e-05 0)
(0.0964466 7.64157e-05 0)
(0.0962655 7.87982e-05 0)
(0.0960827 8.11985e-05 0)
(0.0958982 8.35941e-05 0)
(0.0957121 8.59609e-05 0)
(0.0955248 8.82768e-05 0)
(0.0953365 9.05211e-05 0)
(0.0951475 9.26773e-05 0)
(0.0949581 9.47318e-05 0)
(0.0947686 9.66759e-05 0)
(0.0945793 9.85077e-05 0)
(0.0943906 0.000100232 0)
(0.0942027 0.000101857 0)
(0.0940159 0.000103395 0)
(0.0938304 0.000104862 0)
(0.0936463 0.000106279 0)
(0.0934639 0.00010767 0)
(0.093283 0.000109062 0)
(0.0931039 0.000110478 0)
(0.0929265 0.000111942 0)
(0.0927508 0.00011348 0)
(0.0925766 0.000115117 0)
(0.0924039 0.000116877 0)
(0.0922326 0.000118785 0)
(0.0920625 0.000120857 0)
(0.0918935 0.000123114 0)
(0.0917253 0.000125573 0)
(0.0915578 0.000128248 0)
(0.0913907 0.000131158 0)
(0.0912239 0.000134323 0)
(0.0910572 0.000137766 0)
(0.0908902 0.000141513 0)
(0.0907228 0.000145601 0)
(0.0905547 0.00015008 0)
(0.0903854 0.000155017 0)
(0.0902147 0.000160499 0)
(0.0900419 0.000166644 0)
(0.0898666 0.000173608 0)
(0.0896878 0.000181589 0)
(0.0895048 0.000190847 0)
(0.0893163 0.000201714 0)
(0.0891209 0.000214621 0)
(0.0889166 0.000230126 0)
(0.0887012 0.000248951 0)
(0.0884717 0.000272047 0)
(0.0882244 0.00030067 0)
(0.0879546 0.000336497 0)
(0.0876563 0.000381797 0)
(0.0873218 0.000439689 0)
(0.0869409 0.000514517 0)
(0.0865004 0.000612444 0)
(0.0859829 0.000742366 0)
(0.0853648 0.000917358 0)
(0.0846143 0.00115698 0)
(0.0836879 0.00149096 0)
(0.0825259 0.00196505 0)
(0.081047 0.00265005 0)
(0.0791426 0.00365475 0)
(0.0766668 0.00514312 0)
(0.0734536 0.00735594 0)
(0.0695482 0.0105735 0)
(0.0662546 0.0146736 0)
(0.0999471 0.000103378 0)
(0.099668 0.000174239 0)
(0.0993105 0.00016457 0)
(0.0990407 0.000117119 0)
(0.0988607 8.18111e-05 0)
(0.098724 6.96634e-05 0)
(0.0985957 7.17996e-05 0)
(0.0984607 7.88425e-05 0)
(0.0983166 8.60434e-05 0)
(0.0981649 9.20392e-05 0)
(0.0980079 9.68973e-05 0)
(0.0978472 0.000101027 0)
(0.0976836 0.000104786 0)
(0.0975178 0.000108404 0)
(0.0973499 0.000112009 0)
(0.09718 0.000115665 0)
(0.0970081 0.000119402 0)
(0.0968343 0.000123236 0)
(0.0966586 0.000127168 0)
(0.096481 0.000131184 0)
(0.0963015 0.000135265 0)
(0.0961203 0.000139376 0)
(0.0959374 0.000143481 0)
(0.095753 0.000147539 0)
(0.0955674 0.000151511 0)
(0.0953809 0.000155364 0)
(0.0951935 0.000159068 0)
(0.0950058 0.000162602 0)
(0.094818 0.00016595 0)
(0.0946304 0.000169109 0)
(0.0944433 0.000172086 0)
(0.0942569 0.000174896 0)
(0.0940715 0.00017756 0)
(0.0938874 0.000180105 0)
(0.0937046 0.000182566 0)
(0.0935233 0.000184984 0)
(0.0933436 0.000187403 0)
(0.0931654 0.000189864 0)
(0.092989 0.000192408 0)
(0.092814 0.00019508 0)
(0.0926406 0.000197922 0)
(0.0924687 0.000200975 0)
(0.092298 0.000204277 0)
(0.0921285 0.000207861 0)
(0.0919599 0.000211761 0)
(0.0917923 0.000216004 0)
(0.0916252 0.000220618 0)
(0.0914587 0.000225632 0)
(0.0912924 0.00023108 0)
(0.0911261 0.000237001 0)
(0.0909597 0.00024344 0)
(0.0907929 0.00025046 0)
(0.0906253 0.000258145 0)
(0.0904568 0.000266606 0)
(0.0902868 0.000275993 0)
(0.090115 0.000286502 0)
(0.0899407 0.000298394 0)
(0.0897633 0.000312004 0)
(0.0895819 0.000327762 0)
(0.0893953 0.000346224 0)
(0.0892022 0.000368103 0)
(0.089001 0.000394319 0)
(0.0887895 0.00042606 0)
(0.0885651 0.000464874 0)
(0.0883245 0.000512797 0)
(0.0880637 0.000572521 0)
(0.0877776 0.000647651 0)
(0.0874597 0.000743078 0)
(0.087102 0.000865511 0)
(0.0866945 0.00102429 0)
(0.0862242 0.0012326 0)
(0.0856752 0.00150928 0)
(0.0850277 0.00188156 0)
(0.0842575 0.00238905 0)
(0.0833372 0.00308935 0)
(0.0822388 0.00406499 0)
(0.0809422 0.00542944 0)
(0.0794516 0.00732551 0)
(0.0778392 0.0099006 0)
(0.0763773 0.0131823 0)
(0.0757803 0.0165807 0)
(0.0999565 0.000143005 0)
(0.099707 0.000245914 0)
(0.0993717 0.000235438 0)
(0.0991043 0.000170517 0)
(0.0989165 0.000120886 0)
(0.0987708 0.000103087 0)
(0.098636 0.0001054 0)
(0.0984978 0.000114872 0)
(0.0983524 0.000124799 0)
(0.0982009 0.00013318 0)
(0.0980448 0.000140039 0)
(0.0978853 0.000145913 0)
(0.0977233 0.000151285 0)
(0.0975592 0.000156468 0)
(0.0973931 0.000161639 0)
(0.0972251 0.000166885 0)
(0.0970552 0.000172251 0)
(0.0968835 0.000177755 0)
(0.09671 0.000183398 0)
(0.0965347 0.000189166 0)
(0.0963577 0.000195025 0)
(0.0961789 0.000200932 0)
(0.0959986 0.000206831 0)
(0.0958169 0.000212668 0)
(0.0956339 0.000218387 0)
(0.09545 0.000223941 0)
(0.0952654 0.000229289 0)
(0.0950804 0.000234398 0)
(0.0948952 0.000239249 0)
(0.0947102 0.000243836 0)
(0.0945256 0.000248167 0)
(0.0943416 0.000252266 0)
(0.0941585 0.000256159 0)
(0.0939765 0.000259887 0)
(0.0937958 0.000263499 0)
(0.0936164 0.000267053 0)
(0.0934384 0.000270608 0)
(0.0932619 0.000274225 0)
(0.0930869 0.000277962 0)
(0.0929134 0.000281883 0)
(0.0927413 0.000286046 0)
(0.0925705 0.00029051 0)
(0.092401 0.000295327 0)
(0.0922325 0.000300548 0)
(0.092065 0.000306216 0)
(0.0918983 0.000312372 0)
(0.0917323 0.000319054 0)
(0.0915667 0.000326305 0)
(0.0914014 0.000334173 0)
(0.0912363 0.00034271 0)
(0.0910711 0.000351982 0)
(0.0909055 0.000362077 0)
(0.0907394 0.000373114 0)
(0.0905724 0.000385247 0)
(0.0904043 0.000398688 0)
(0.0902345 0.000413711 0)
(0.0900625 0.000430677 0)
(0.0898878 0.000450051 0)
(0.0897096 0.000472429 0)
(0.0895268 0.000498574 0)
(0.0893383 0.000529461 0)
(0.0891427 0.000566339 0)
(0.0889381 0.000610808 0)
(0.0887225 0.000664938 0)
(0.0884932 0.000731412 0)
(0.088247 0.000813743 0)
(0.0879801 0.000916562 0)
(0.0876878 0.00104603 0)
(0.0873649 0.00121041 0)
(0.0870049 0.00142093 0)
(0.0866008 0.0016929 0)
(0.0861451 0.00204737 0)
(0.0856307 0.00251333 0)
(0.0850529 0.00313053 0)
(0.0844127 0.00395249 0)
(0.0837236 0.00504837 0)
(0.0830234 0.00649978 0)
(0.0823906 0.00838371 0)
(0.0819696 0.0107255 0)
(0.0819964 0.0133816 0)
(0.0827587 0.0157819 0)
(0.099967 0.000178865 0)
(0.0997544 0.000315283 0)
(0.0994483 0.00030768 0)
(0.0991857 0.000228325 0)
(0.098989 0.000165173 0)
(0.0988323 0.000141181 0)
(0.0986897 0.000142852 0)
(0.0985473 0.00015413 0)
(0.0984006 0.000166426 0)
(0.0982493 0.000177026 0)
(0.0980944 0.000185834 0)
(0.0979367 0.000193457 0)
(0.0977767 0.000200474 0)
(0.0976148 0.000207268 0)
(0.0974511 0.000214056 0)
(0.0972857 0.00022095 0)
(0.0971186 0.000228001 0)
(0.0969498 0.000235237 0)
(0.0967792 0.000242656 0)
(0.0966071 0.000250238 0)
(0.0964332 0.000257943 0)
(0.0962578 0.000265714 0)
(0.096081 0.000273482 0)
(0.0959028 0.000281175 0)
(0.0957235 0.000288724 0)
(0.0955432 0.000296066 0)
(0.0953623 0.000303149 0)
(0.0951809 0.000309932 0)
(0.0949993 0.000316389 0)
(0.0948177 0.000322513 0)
(0.0946365 0.000328314 0)
(0.0944558 0.000333818 0)
(0.0942758 0.000339064 0)
(0.0940968 0.000344102 0)
(0.0939188 0.000348994 0)
(0.093742 0.000353815 0)
(0.0935665 0.000358639 0)
(0.0933923 0.000363544 0)
(0.0932195 0.000368608 0)
(0.0930479 0.000373911 0)
(0.0928776 0.000379528 0)
(0.0927086 0.000385534 0)
(0.0925407 0.000391997 0)
(0.0923738 0.000398981 0)
(0.0922079 0.000406541 0)
(0.0920427 0.000414729 0)
(0.0918783 0.000423597 0)
(0.0917143 0.000433197 0)
(0.0915508 0.00044359 0)
(0.0913874 0.000454842 0)
(0.0912242 0.00046704 0)
(0.0910608 0.000480296 0)
(0.0908971 0.000494759 0)
(0.0907327 0.000510627 0)
(0.0905675 0.000528166 0)
(0.0904011 0.000547726 0)
(0.090233 0.000569757 0)
(0.0900628 0.000594843 0)
(0.0898897 0.000623724 0)
(0.0897129 0.000657344 0)
(0.0895317 0.000696897 0)
(0.0893448 0.000743899 0)
(0.0891508 0.000800276 0)
(0.0889483 0.000868481 0)
(0.0887353 0.000951655 0)
(0.0885098 0.00105383 0)
(0.0882695 0.00118023 0)
(0.0880119 0.00133761 0)
(0.0877343 0.0015348 0)
(0.0874346 0.00178336 0)
(0.0871112 0.00209842 0)
(0.0867646 0.00249976 0)
(0.0863983 0.00301302 0)
(0.086022 0.00367078 0)
(0.0856553 0.00451283 0)
(0.0853337 0.00558406 0)
(0.085117 0.00692654 0)
(0.0850965 0.00855985 0)
(0.0853992 0.0104413 0)
(0.0861714 0.0123973 0)
(0.0875016 0.0140354 0)
(0.0999775 0.000209432 0)
(0.0998053 0.000380049 0)
(0.0995329 0.000380031 0)
(0.0992779 0.000290559 0)
(0.0990732 0.000215385 0)
(0.0989054 0.000184743 0)
(0.0987544 0.000184762 0)
(0.0986074 0.000196994 0)
(0.0984593 0.000211129 0)
(0.0983084 0.000223673 0)
(0.098155 0.000234309 0)
(0.0979994 0.000243643 0)
(0.097842 0.000252311 0)
(0.0976829 0.000260739 0)
(0.0975222 0.000269179 0)
(0.09736 0.00027776 0)
(0.0971962 0.000286541 0)
(0.0970309 0.000295553 0)
(0.0968641 0.000304795 0)
(0.0966957 0.00031424 0)
(0.0965259 0.000323842 0)
(0.0963546 0.000333532 0)
(0.096182 0.000343227 0)
(0.0960082 0.000352842 0)
(0.0958333 0.000362292 0)
(0.0956575 0.000371503 0)
(0.095481 0.000380411 0)
(0.0953041 0.000388968 0)
(0.0951269 0.00039714 0)
(0.0949497 0.000404919 0)
(0.0947726 0.000412316 0)
(0.0945959 0.000419362 0)
(0.0944198 0.000426102 0)
(0.0942445 0.000432596 0)
(0.09407 0.000438921 0)
(0.0938965 0.000445163 0)
(0.093724 0.000451411 0)
(0.0935527 0.000457761 0)
(0.0933826 0.000464307 0)
(0.0932136 0.000471143 0)
(0.0930457 0.000478362 0)
(0.0928789 0.000486051 0)
(0.0927132 0.000494295 0)
(0.0925485 0.000503167 0)
(0.0923847 0.000512734 0)
(0.0922217 0.000523059 0)
(0.0920594 0.000534203 0)
(0.0918978 0.00054623 0)
(0.0917366 0.000559209 0)
(0.0915759 0.000573222 0)
(0.0914155 0.000588369 0)
(0.0912552 0.000604786 0)
(0.0910949 0.000622647 0)
(0.0909344 0.000642191 0)
(0.0907735 0.000663729 0)
(0.0906119 0.000687673 0)
(0.0904493 0.00071455 0)
(0.0902853 0.000745037 0)
(0.0901195 0.000779988 0)
(0.0899513 0.000820481 0)
(0.0897801 0.000867867 0)
(0.0896051 0.000923841 0)
(0.0894255 0.000990526 0)
(0.0892404 0.00107058 0)
(0.0890489 0.00116735 0)
(0.08885 0.00128503 0)
(0.088643 0.00142891 0)
(0.0884275 0.00160563 0)
(0.0882036 0.00182355 0)
(0.0879727 0.00209315 0)
(0.0877379 0.00242745 0)
(0.0875053 0.00284243 0)
(0.0872857 0.00335725 0)
(0.0870963 0.00399393 0)
(0.0869647 0.00477599 0)
(0.0869315 0.00572466 0)
(0.0870539 0.006851 0)
(0.0874066 0.00814122 0)
(0.0880752 0.00953329 0)
(0.0891334 0.0108873 0)
(0.0905907 0.0119673 0)
(0.099987 0.000233816 0)
(0.0998542 0.000438538 0)
(0.0996175 0.000451274 0)
(0.0993733 0.000356836 0)
(0.0991632 0.000271776 0)
(0.0989855 0.000234257 0)
(0.0988267 0.000231576 0)
(0.0986756 0.000243786 0)
(0.098526 0.000259105 0)
(0.0983758 0.000273224 0)
(0.0982242 0.000285505 0)
(0.0980711 0.000296473 0)
(0.0979166 0.000306764 0)
(0.0977607 0.000316829 0)
(0.0976035 0.000326937 0)
(0.097445 0.000337227 0)
(0.0972851 0.000347765 0)
(0.0971239 0.000358583 0)
(0.0969613 0.000369678 0)
(0.0967973 0.000381019 0)
(0.0966321 0.000392554 0)
(0.0964656 0.000404203 0)
(0.0962978 0.000415871 0)
(0.096129 0.00042746 0)
(0.0959592 0.000438875 0)
(0.0957885 0.000450028 0)
(0.0956172 0.000460847 0)
(0.0954454 0.000471275 0)
(0.0952732 0.000481275 0)
(0.095101 0.000490833 0)
(0.0949288 0.000499964 0)
(0.0947568 0.0005087 0)
(0.0945852 0.000517092 0)
(0.0944141 0.00052521 0)
(0.0942437 0.000533139 0)
(0.094074 0.000540977 0)
(0.0939052 0.000548827 0)
(0.0937374 0.000556797 0)
(0.0935705 0.000564994 0)
(0.0934045 0.000573529 0)
(0.0932396 0.000582505 0)
(0.0930757 0.000592025 0)
(0.0929127 0.00060218 0)
(0.0927507 0.000613057 0)
(0.0925896 0.00062473 0)
(0.0924294 0.00063727 0)
(0.09227 0.000650748 0)
(0.0921113 0.000665232 0)
(0.0919533 0.000680801 0)
(0.091796 0.000697546 0)
(0.0916393 0.00071558 0)
(0.0914831 0.000735052 0)
(0.0913273 0.000756161 0)
(0.0911719 0.00077917 0)
(0.0910166 0.000804428 0)
(0.0908613 0.000832389 0)
(0.0907059 0.000863632 0)
(0.0905502 0.000898896 0)
(0.0903938 0.000939105 0)
(0.0902366 0.000985409 0)
(0.0900781 0.00103923 0)
(0.0899181 0.00110234 0)
(0.0897564 0.0011769 0)
(0.0895927 0.00126556 0)
(0.089427 0.0013716 0)
(0.0892595 0.00149899 0)
(0.0890909 0.0016526 0)
(0.0889227 0.00183829 0)
(0.0887571 0.00206314 0)
(0.0885983 0.0023355 0)
(0.0884522 0.00266511 0)
(0.0883285 0.00306295 0)
(0.0882406 0.00354082 0)
(0.0882082 0.00411035 0)
(0.088258 0.00478104 0)
(0.0884256 0.00555684 0)
(0.0887548 0.00643045 0)
(0.089296 0.00737498 0)
(0.090097 0.00833351 0)
(0.0911875 0.00921018 0)
(0.0925508 0.00987279 0)
(0.0999948 0.000251911 0)
(0.099897 0.000489891 0)
(0.0996952 0.000520372 0)
(0.0994648 0.000426402 0)
(0.099253 0.000334081 0)
(0.0990684 0.000289809 0)
(0.0989034 0.000283519 0)
(0.0987487 0.00029473 0)
(0.0985983 0.000310523 0)
(0.0984489 0.000325788 0)
(0.0982993 0.00033948 0)
(0.098149 0.000351963 0)
(0.0979977 0.000363825 0)
(0.0978455 0.000375506 0)
(0.0976921 0.000387277 0)
(0.0975377 0.000399282 0)
(0.0973821 0.000411588 0)
(0.0972253 0.000424226 0)
(0.0970674 0.000437191 0)
(0.0969084 0.000450448 0)
(0.0967481 0.000463938 0)
(0.0965868 0.000477572 0)
(0.0964244 0.000491246 0)
(0.096261 0.000504852 0)
(0.0960967 0.000518284 0)
(0.0959317 0.000531446 0)
(0.095766 0.000544256 0)
(0.0955998 0.000556652 0)
(0.0954332 0.000568591 0)
(0.0952663 0.000580058 0)
(0.0950994 0.000591065 0)
(0.0949326 0.000601648 0)
(0.094766 0.000611862 0)
(0.0945997 0.000621782 0)
(0.0944339 0.000631501 0)
(0.0942686 0.000641124 0)
(0.0941039 0.000650765 0)
(0.09394 0.000660541 0)
(0.0937768 0.000670571 0)
(0.0936145 0.000680974 0)
(0.0934531 0.000691866 0)
(0.0932925 0.000703355 0)
(0.0931329 0.000715544 0)
(0.0929742 0.000728523 0)
(0.0928164 0.000742373 0)
(0.0926596 0.000757173 0)
(0.0925037 0.000772993 0)
(0.0923488 0.000789909 0)
(0.0921948 0.000808001 0)
(0.0920418 0.000827364 0)
(0.0918898 0.000848118 0)
(0.0917387 0.000870418 0)
(0.0915885 0.000894474 0)
(0.0914393 0.000920565 0)
(0.091291 0.000949056 0)
(0.0911436 0.00098042 0)
(0.090997 0.00101526 0)
(0.0908513 0.00105433 0)
(0.0907064 0.00109857 0)
(0.0905623 0.00114913 0)
(0.0904191 0.00120741 0)
(0.0902769 0.00127513 0)
(0.090136 0.00135432 0)
(0.0899969 0.00144743 0)
(0.0898603 0.00155739 0)
(0.0897274 0.00168764 0)
(0.0896002 0.0018422 0)
(0.0894813 0.0020257 0)
(0.0893746 0.0022434 0)
(0.0892855 0.00250106 0)
(0.0892218 0.00280479 0)
(0.0891936 0.00316064 0)
(0.0892145 0.00357387 0)
(0.0893022 0.00404792 0)
(0.0894785 0.0045827 0)
(0.0897695 0.0051722 0)
(0.0902043 0.0058014 0)
(0.0908114 0.00644259 0)
(0.0916134 0.00705214 0)
(0.0926165 0.00757004 0)
(0.0937993 0.00792596 0)
(0.1 0.000264262 0)
(0.0999315 0.000534005 0)
(0.0997619 0.00058654 0)
(0.0995476 0.000498245 0)
(0.0993383 0.000401586 0)
(0.0991502 0.000351089 0)
(0.0989811 0.000340552 0)
(0.0988242 0.000349903 0)
(0.0986734 0.00036548 0)
(0.0985253 0.000381437 0)
(0.0983781 0.000396273 0)
(0.0982308 0.000410122 0)
(0.098083 0.000423473 0)
(0.0979346 0.000436726 0)
(0.0977854 0.000450139 0)
(0.0976353 0.000463849 0)
(0.0974843 0.000477921 0)
(0.0973324 0.000492381 0)
(0.0971795 0.000507221 0)
(0.0970256 0.000522403 0)
(0.0968707 0.000537858 0)
(0.0967148 0.000553493 0)
(0.096558 0.000569198 0)
(0.0964004 0.000584855 0)
(0.096242 0.00060035 0)
(0.0960828 0.000615579 0)
(0.095923 0.000630456 0)
(0.0957627 0.000644913 0)
(0.0956019 0.000658903 0)
(0.0954409 0.000672407 0)
(0.0952797 0.000685437 0)
(0.0951183 0.000698028 0)
(0.0949571 0.000710238 0)
(0.0947959 0.000722144 0)
(0.094635 0.000733844 0)
(0.0944745 0.000745447 0)
(0.0943144 0.000757072 0)
(0.0941549 0.000768842 0)
(0.093996 0.000780883 0)
(0.0938378 0.000793319 0)
(0.0936803 0.000806272 0)
(0.0935237 0.000819856 0)
(0.093368 0.000834176 0)
(0.0932133 0.000849324 0)
(0.0930595 0.000865387 0)
(0.0929068 0.00088244 0)
(0.0927553 0.000900556 0)
(0.0926049 0.000919807 0)
(0.0924557 0.00094027 0)
(0.0923079 0.000962038 0)
(0.0921615 0.000985225 0)
(0.0920166 0.00100999 0)
(0.0918732 0.00103653 0)
(0.0917314 0.00106512 0)
(0.0915914 0.00109613 0)
(0.0914533 0.00113002 0)
(0.0913172 0.00116737 0)
(0.0911832 0.00120891 0)
(0.0910516 0.00125553 0)
(0.0909227 0.00130832 0)
(0.0907968 0.00136854 0)
(0.0906746 0.00143772 0)
(0.0905567 0.00151764 0)
(0.0904442 0.00161037 0)
(0.0903386 0.00171826 0)
(0.0902417 0.00184397 0)
(0.0901562 0.00199045 0)
(0.0900856 0.00216087 0)
(0.0900344 0.00235852 0)
(0.0900086 0.00258658 0)
(0.0900157 0.00284788 0)
(0.0900653 0.0031444 0)
(0.0901689 0.0034766 0)
(0.0903403 0.0038426 0)
(0.0905951 0.00423706 0)
(0.0909503 0.00464993 0)
(0.0914223 0.00506513 0)
(0.092025 0.00545966 0)
(0.0927657 0.00580351 0)
(0.0936407 0.00606149 0)
(0.0946308 0.00619802 0)
(0.100004 0.000271812 0)
(0.0999574 0.000571331 0)
(0.0998161 0.000649281 0)
(0.0996194 0.0005713 0)
(0.0994162 0.000473304 0)
(0.0992282 0.00041749 0)
(0.0990576 0.000402411 0)
(0.0988998 0.000409238 0)
(0.0987495 0.000423989 0)
(0.0986031 0.0004402 0)
(0.0984585 0.000455897 0)
(0.0983144 0.00047094 0)
(0.0981704 0.000485677 0)
(0.0980261 0.000500441 0)
(0.0978812 0.000515457 0)
(0.0977358 0.000530849 0)
(0.0975896 0.000546672 0)
(0.0974427 0.000562947 0)
(0.0972949 0.000579659 0)
(0.0971464 0.000596765 0)
(0.096997 0.000614191 0)
(0.0968468 0.000631838 0)
(0.0966958 0.00064959 0)
(0.0965441 0.000667325 0)
(0.0963916 0.000684923 0)
(0.0962385 0.000702276 0)
(0.0960848 0.000719292 0)
(0.0959305 0.000735899 0)
(0.0957758 0.000752048 0)
(0.0956207 0.000767717 0)
(0.0954653 0.000782915 0)
(0.0953098 0.000797675 0)
(0.0951541 0.000812054 0)
(0.0949984 0.000826129 0)
(0.0948428 0.000839997 0)
(0.0946874 0.000853768 0)
(0.0945322 0.000867561 0)
(0.0943775 0.000881501 0)
(0.0942233 0.000895714 0)
(0.0940697 0.000910327 0)
(0.0939168 0.000925463 0)
(0.0937648 0.000941235 0)
(0.0936136 0.000957747 0)
(0.0934634 0.00097509 0)
(0.0933144 0.000993348 0)
(0.0931666 0.00101259 0)
(0.0930202 0.00103288 0)
(0.0928752 0.00105428 0)
(0.0927318 0.00107687 0)
(0.0925901 0.00110071 0)
(0.0924504 0.00112591 0)
(0.0923127 0.00115261 0)
(0.0921772 0.00118099 0)
(0.0920441 0.0012113 0)
(0.0919138 0.00124388 0)
(0.0917863 0.00127913 0)
(0.091662 0.00131761 0)
(0.0915413 0.00135994 0)
(0.0914246 0.00140692 0)
(0.0913124 0.00145946 0)
(0.0912054 0.00151865 0)
(0.0911046 0.00158571 0)
(0.091011 0.00166203 0)
(0.0909261 0.00174917 0)
(0.0908517 0.0018488 0)
(0.0907902 0.00196269 0)
(0.0907446 0.00209263 0)
(0.0907185 0.00224032 0)
(0.0907165 0.00240725 0)
(0.0907442 0.00259444 0)
(0.0908083 0.00280215 0)
(0.0909164 0.00302951 0)
(0.0910774 0.00327405 0)
(0.0913009 0.00353114 0)
(0.0915969 0.00379348 0)
(0.091975 0.00405061 0)
(0.092443 0.00428871 0)
(0.093006 0.00449085 0)
(0.0936638 0.00463796 0)
(0.0944095 0.00471075 0)
(0.0952276 0.00469263 0)
(0.100006 0.000275661 0)
(0.0999755 0.000602686 0)
(0.0998583 0.000708387 0)
(0.0996795 0.000644587 0)
(0.0994853 0.000548152 0)
(0.0993007 0.000488239 0)
(0.099131 0.00046867 0)
(0.0989739 0.000472556 0)
(0.098825 0.000486001 0)
(0.0986808 0.000502072 0)
(0.0985391 0.000518353 0)
(0.0983985 0.000534408 0)
(0.0982584 0.000550412 0)
(0.0981183 0.000566608 0)
(0.097978 0.000583176 0)
(0.0978373 0.000600216 0)
(0.0976961 0.00061777 0)
(0.0975543 0.000635845 0)
(0.0974119 0.00065442 0)
(0.0972688 0.000673446 0)
(0.097125 0.000692844 0)
(0.0969806 0.000712509 0)
(0.0968354 0.000732323 0)
(0.0966897 0.000752159 0)
(0.0965432 0.000771897 0)
(0.0963962 0.000791425 0)
(0.0962486 0.000810647 0)
(0.0961005 0.00082949 0)
(0.0959519 0.000847901 0)
(0.0958029 0.000865856 0)
(0.0956534 0.00088336 0)
(0.0955037 0.000900441 0)
(0.0953538 0.000917152 0)
(0.0952038 0.000933564 0)
(0.0950537 0.000949772 0)
(0.0949037 0.000965879 0)
(0.0947539 0.000982002 0)
(0.0946045 0.00099826 0)
(0.0944554 0.00101478 0)
(0.0943069 0.00103168 0)
(0.0941592 0.00104908 0)
(0.0940122 0.00106709 0)
(0.0938663 0.0010858 0)
(0.0937214 0.00110531 0)
(0.0935779 0.00112567 0)
(0.0934358 0.00114696 0)
(0.0932953 0.00116922 0)
(0.0931566 0.0011925 0)
(0.0930199 0.00121683 0)
(0.0928854 0.00124228 0)
(0.0927533 0.00126893 0)
(0.0926239 0.00129687 0)
(0.0924975 0.00132625 0)
(0.0923743 0.00135728 0)
(0.0922548 0.00139024 0)
(0.0921392 0.00142546 0)
(0.092028 0.00146338 0)
(0.0919218 0.00150452 0)
(0.0918211 0.00154951 0)
(0.0917268 0.00159904 0)
(0.0916397 0.00165392 0)
(0.0915609 0.00171503 0)
(0.0914918 0.0017833 0)
(0.0914341 0.00185969 0)
(0.0913898 0.00194517 0)
(0.0913614 0.00204061 0)
(0.0913518 0.00214674 0)
(0.0913645 0.00226401 0)
(0.0914035 0.00239244 0)
(0.0914736 0.00253144 0)
(0.09158 0.00267959 0)
(0.0917285 0.00283436 0)
(0.0919251 0.00299188 0)
(0.0921757 0.00314663 0)
(0.0924861 0.00329135 0)
(0.0928607 0.00341699 0)
(0.0933025 0.00351297 0)
(0.0938116 0.00356788 0)
(0.0943851 0.00357048 0)
(0.0950156 0.00351121 0)
(0.0956917 0.00338375 0)
(0.100006 0.00027688 0)
(0.0999873 0.000629054 0)
(0.0998898 0.000763879 0)
(0.0997285 0.000717289 0)
(0.0995455 0.000625073 0)
(0.0993668 0.000562486 0)
(0.0992003 0.0005388 0)
(0.0990453 0.000539584 0)
(0.0988987 0.000551389 0)
(0.0987572 0.000566998 0)
(0.0986188 0.000583611 0)
(0.098482 0.000600496 0)
(0.098346 0.000617638 0)
(0.0982103 0.00063518 0)
(0.0980747 0.000653243 0)
(0.0979388 0.00067189 0)
(0.0978027 0.000691146 0)
(0.0976661 0.000711004 0)
(0.0975291 0.000731432 0)
(0.0973915 0.000752372 0)
(0.0972533 0.000773741 0)
(0.0971147 0.000795431 0)
(0.0969754 0.000817319 0)
(0.0968356 0.000839281 0)
(0.0966952 0.000861194 0)
(0.0965542 0.000882946 0)
(0.0964127 0.000904439 0)
(0.0962707 0.000925596 0)
(0.0961282 0.000946364 0)
(0.0959852 0.000966716 0)
(0.0958419 0.000986649 0)
(0.0956981 0.00100618 0)
(0.0955541 0.00102537 0)
(0.0954099 0.00104426 0)
(0.0952656 0.00106295 0)
(0.0951213 0.00108153 0)
(0.0949772 0.00110011 0)
(0.0948334 0.00111879 0)
(0.09469 0.0011377 0)
(0.0945471 0.00115695 0)
(0.0944051 0.00117664 0)
(0.0942639 0.00119687 0)
(0.0941238 0.00121773 0)
(0.093985 0.00123929 0)
(0.0938477 0.0012616 0)
(0.0937121 0.0012847 0)
(0.0935785 0.00130861 0)
(0.093447 0.00133336 0)
(0.0933179 0.00135895 0)
(0.0931915 0.00138541 0)
(0.0930682 0.00141276 0)
(0.0929482 0.00144108 0)
(0.0928318 0.00147044 0)
(0.0927196 0.00150099 0)
(0.092612 0.00153291 0)
(0.0925093 0.00156646 0)
(0.0924122 0.00160193 0)
(0.0923214 0.00163968 0)
(0.0922375 0.00168013 0)
(0.0921615 0.00172373 0)
(0.0920944 0.00177095 0)
(0.0920375 0.00182228 0)
(0.0919922 0.0018782 0)
(0.0919602 0.00193909 0)
(0.0919435 0.00200524 0)
(0.0919445 0.00207676 0)
(0.0919657 0.00215348 0)
(0.0920103 0.0022349 0)
(0.0920814 0.00232002 0)
(0.0921827 0.00240725 0)
(0.092318 0.00249423 0)
(0.0924911 0.00257774 0)
(0.0927057 0.00265357 0)
(0.0929652 0.00271645 0)
(0.0932721 0.00276009 0)
(0.0936281 0.00277744 0)
(0.0940331 0.00276105 0)
(0.0944855 0.00270376 0)
(0.0949813 0.00259961 0)
(0.0955145 0.00244481 0)
(0.0960766 0.00223864 0)
(0.100006 0.000276406 0)
(0.0999943 0.000651464 0)
(0.0999126 0.000815962 0)
(0.0997678 0.000788807 0)
(0.099597 0.000703142 0)
(0.0994262 0.00063939 0)
(0.0992646 0.000612218 0)
(0.0991133 0.000609972 0)
(0.0989698 0.000619958 0)
(0.0988317 0.000634873 0)
(0.0986969 0.000651604 0)
(0.098564 0.000669146 0)
(0.0984323 0.000687302 0)
(0.0983012 0.0007061 0)
(0.0981704 0.000725592 0)
(0.0980395 0.000745802 0)
(0.0979085 0.000766729 0)
(0.0977772 0.00078835 0)
(0.0976456 0.000810617 0)
(0.0975135 0.000833467 0)
(0.097381 0.000856807 0)
(0.0972481 0.000880528 0)
(0.0971146 0.000904507 0)
(0.0969807 0.000928619 0)
(0.0968463 0.000952744 0)
(0.0967114 0.000976768 0)
(0.0965759 0.00100059 0)
(0.09644 0.00102414 0)
(0.0963035 0.00104735 0)
(0.0961666 0.00107019 0)
(0.0960293 0.00109265 0)
(0.0958916 0.00111475 0)
(0.0957536 0.00113651 0)
(0.0956154 0.00115799 0)
(0.0954772 0.00117925 0)
(0.0953389 0.00120039 0)
(0.0952008 0.00122149 0)
(0.095063 0.00124266 0)
(0.0949257 0.00126398 0)
(0.094789 0.00128557 0)
(0.0946532 0.00130751 0)
(0.0945185 0.00132988 0)
(0.094385 0.00135275 0)
(0.094253 0.00137617 0)
(0.0941227 0.00140015 0)
(0.0939944 0.00142472 0)
(0.0938684 0.00144985 0)
(0.093745 0.00147554 0)
(0.0936245 0.00150175 0)
(0.0935072 0.00152846 0)
(0.0933935 0.00155564 0)
(0.0932839 0.0015833 0)
(0.0931786 0.00161145 0)
(0.0930782 0.00164015 0)
(0.0929833 0.00166947 0)
(0.0928943 0.00169955 0)
(0.0928119 0.00173052 0)
(0.0927369 0.00176256 0)
(0.09267 0.00179586 0)
(0.0926122 0.00183059 0)
(0.0925647 0.00186692 0)
(0.0925286 0.00190494 0)
(0.0925053 0.00194467 0)
(0.0924966 0.00198602 0)
(0.0925041 0.0020287 0)
(0.0925299 0.00207222 0)
(0.0925762 0.00211578 0)
(0.0926453 0.00215822 0)
(0.0927398 0.00219796 0)
(0.092862 0.00223289 0)
(0.0930145 0.00226036 0)
(0.0931997 0.00227705 0)
(0.0934194 0.00227906 0)
(0.0936751 0.00226186 0)
(0.0939678 0.0022205 0)
(0.0942971 0.00214982 0)
(0.094662 0.0020449 0)
(0.0950602 0.00190165 0)
(0.0954879 0.00171747 0)
(0.0959403 0.00149201 0)
(0.0964113 0.00122752 0)
(0.100006 0.000275004 0)
(0.0999978 0.000670909 0)
(0.0999286 0.000864985 0)
(0.0997987 0.000858776 0)
(0.0996407 0.000781598 0)
(0.099479 0.000718182 0)
(0.0993239 0.000688334 0)
(0.0991773 0.000683319 0)
(0.0990379 0.000691464 0)
(0.0989037 0.000705546 0)
(0.0987729 0.000722229 0)
(0.0986444 0.000740283 0)
(0.0985171 0.000759338 0)
(0.0983907 0.000779304 0)
(0.0982647 0.00080016 0)
(0.0981389 0.000821885 0)
(0.0980131 0.000844451 0)
(0.0978871 0.000867812 0)
(0.0977609 0.000891905 0)
(0.0976344 0.000916657 0)
(0.0975075 0.00094197 0)
(0.0973802 0.000967731 0)
(0.0972526 0.000993817 0)
(0.0971245 0.0010201 0)
(0.096996 0.00104647 0)
(0.096867 0.00107281 0)
(0.0967376 0.00109901 0)
(0.0966077 0.00112501 0)
(0.0964773 0.00115073 0)
(0.0963464 0.00117613 0)
(0.0962152 0.00120119 0)
(0.0960837 0.00122592 0)
(0.0959518 0.00125032 0)
(0.0958199 0.00127444 0)
(0.0956878 0.00129832 0)
(0.0955559 0.00132204 0)
(0.0954241 0.00134567 0)
(0.0952928 0.0013693 0)
(0.0951621 0.00139299 0)
(0.0950322 0.00141683 0)
(0.0949032 0.00144089 0)
(0.0947755 0.00146523 0)
(0.0946493 0.00148987 0)
(0.0945248 0.00151484 0)
(0.0944023 0.00154013 0)
(0.0942821 0.0015657 0)
(0.0941646 0.00159151 0)
(0.0940502 0.00161748 0)
(0.0939391 0.00164354 0)
(0.0938317 0.0016696 0)
(0.0937285 0.00169558 0)
(0.09363 0.00172141 0)
(0.0935365 0.00174703 0)
(0.0934486 0.00177238 0)
(0.0933669 0.00179743 0)
(0.093292 0.00182217 0)
(0.0932245 0.00184656 0)
(0.0931652 0.00187059 0)
(0.093115 0.00189422 0)
(0.0930747 0.00191736 0)
(0.0930455 0.00193986 0)
(0.0930285 0.00196149 0)
(0.0930249 0.00198191 0)
(0.0930363 0.0020006 0)
(0.093064 0.00201688 0)
(0.0931097 0.00202981 0)
(0.093175 0.00203823 0)
(0.0932618 0.00204061 0)
(0.0933715 0.00203512 0)
(0.0935059 0.00201954 0)
(0.0936664 0.00199125 0)
(0.0938541 0.00194727 0)
(0.0940698 0.00188425 0)
(0.094314 0.00179859 0)
(0.0945863 0.00168656 0)
(0.0948859 0.00154463 0)
(0.0952112 0.00136974 0)
(0.0955599 0.00115986 0)
(0.0959289 0.000914514 0)
(0.0963144 0.0006353 0)
(0.0967121 0.000326128 0)
(0.100005 0.000273269 0)
(0.0999989 0.000688278 0)
(0.0999393 0.000911366 0)
(0.0998229 0.000926988 0)
(0.0996774 0.000859825 0)
(0.0995257 0.000798161 0)
(0.0993781 0.000766529 0)
(0.0992373 0.000759163 0)
(0.0991027 0.000765589 0)
(0.098973 0.00077879 0)
(0.0988467 0.000795325 0)