/*--------------------------------*- C++ -*----------------------------------*\
| =========                 |                                                 |
| \\      /  F ield         | OpenFOAM: The Open Source CFD Toolbox           |
|  \\    /   O peration     | Version:  2106                                  |
|   \\  /    A nd           | Website:  www.openfoam.com                      |
|    \\/     M anipulation  |                                                 |
\*---------------------------------------------------------------------------*/
FoamFile
{
    version     2.0;
    format      ascii;
    arch        "LSB;label=32;scalar=64";
    class       volVectorField;
    location    "0.2";
    object      U;
}
// * * * * * * * * * * * * * * * * * * * * * * * * * * * * * * * * * * * * * //

dimensions      [0 1 -1 0 0 0 0];

internalField   nonuniform List<vector> 
12013
(
(0.0999329 2.04605e-05 0)
(0.0996259 3.38652e-05 0)
(0.0992464 3.1727e-05 0)
(0.0989718 2.24225e-05 0)
(0.0987956 1.56129e-05 0)
(0.0986637 1.33327e-05 0)
(0.0985378 1.38066e-05 0)
(0.0984027 1.5196e-05 0)
(0.0982566 1.65786e-05 0)
(0.0981022 1.76902e-05 0)
(0.0979425 1.85436e-05 0)
(0.0977795 1.92167e-05 0)
(0.0976148 1.97802e-05 0)
(0.097449 2.02795e-05 0)
(0.0972826 2.07451e-05 0)
(0.097116 2.11947e-05 0)
(0.0969491 2.16411e-05 0)
(0.0967822 2.20937e-05 0)
(0.0966152 2.25596e-05 0)
(0.0964481 2.30448e-05 0)
(0.0962807 2.35555e-05 0)
(0.0961129 2.40961e-05 0)
(0.0959446 2.46716e-05 0)
(0.0957757 2.52857e-05 0)
(0.0956059 2.5941e-05 0)
(0.0954351 2.66384e-05 0)
(0.0952631 2.73774e-05 0)
(0.0950898 2.81571e-05 0)
(0.0949151 2.89756e-05 0)
(0.0947388 2.983e-05 0)
(0.0945609 3.07171e-05 0)
(0.0943814 3.16345e-05 0)
(0.0942001 3.25794e-05 0)
(0.0940172 3.35492e-05 0)
(0.0938326 3.45422e-05 0)
(0.0936464 3.55562e-05 0)
(0.0934585 3.65907e-05 0)
(0.0932691 3.76459e-05 0)
(0.093078 3.87227e-05 0)
(0.0928855 3.98218e-05 0)
(0.0926915 4.09448e-05 0)
(0.0924959 4.2094e-05 0)
(0.092299 4.32721e-05 0)
(0.0921005 4.44827e-05 0)
(0.0919006 4.57311e-05 0)
(0.0916991 4.7024e-05 0)
(0.091496 4.8369e-05 0)
(0.0912913 4.97761e-05 0)
(0.0910847 5.12561e-05 0)
(0.0908762 5.28233e-05 0)
(0.0906655 5.44945e-05 0)
(0.0904524 5.62899e-05 0)
(0.0902365 5.82345e-05 0)
(0.0900174 6.03579e-05 0)
(0.0897946 6.26966e-05 0)
(0.0895676 6.52953e-05 0)
(0.0893356 6.82084e-05 0)
(0.0890977 7.15049e-05 0)
(0.0888528 7.52701e-05 0)
(0.0885997 7.96131e-05 0)
(0.0883367 8.46729e-05 0)
(0.0880619 9.06278e-05 0)
(0.0877727 9.77094e-05 0)
(0.0874661 0.000106222 0)
(0.0871381 0.000116571 0)
(0.0867839 0.000129297 0)
(0.086397 0.000145142 0)
(0.0859691 0.00016513 0)
(0.0854893 0.000190706 0)
(0.0849429 0.000223939 0)
(0.0843099 0.000267855 0)
(0.0835628 0.000326968 0)
(0.0826627 0.000408151 0)
(0.0815538 0.000522083 0)
(0.080154 0.000685675 0)
(0.0783417 0.000926176 0)
(0.0759327 0.00128822 0)
(0.0726307 0.00184811 0)
(0.0679716 0.00275802 0)
(0.0613972 0.00443719 0)
(0.0539277 0.00875947 0)
(0.0999391 6.21177e-05 0)
(0.0996394 0.000103382 0)
(0.0992654 9.71805e-05 0)
(0.0989911 6.89204e-05 0)
(0.0988127 4.81368e-05 0)
(0.0986783 4.11224e-05 0)
(0.0985506 4.25115e-05 0)
(0.0984145 4.67107e-05 0)
(0.0982681 5.09066e-05 0)
(0.0981138 5.42872e-05 0)
(0.0979544 5.68877e-05 0)
(0.097792 5.8943e-05 0)
(0.0976278 6.0665e-05 0)
(0.0974625 6.21941e-05 0)
(0.0972968 6.36203e-05 0)
(0.0971307 6.4999e-05 0)
(0.0969645 6.63691e-05 0)
(0.0967982 6.77583e-05 0)
(0.0966318 6.91886e-05 0)
(0.0964652 7.06786e-05 0)
(0.0962983 7.22465e-05 0)
(0.0961311 7.39067e-05 0)
(0.0959634 7.56738e-05 0)
(0.0957949 7.75595e-05 0)
(0.0956256 7.95707e-05 0)
(0.0954553 8.17102e-05 0)
(0.0952839 8.39778e-05 0)
(0.095111 8.637e-05 0)
(0.0949368 8.88803e-05 0)
(0.094761 9.15003e-05 0)
(0.0945837 9.4221e-05 0)
(0.0944046 9.70334e-05 0)
(0.0942239 9.993e-05 0)
(0.0940416 0.000102903 0)
(0.0938576 0.000105947 0)
(0.0936719 0.000109055 0)
(0.0934846 0.000112225 0)
(0.0932958 0.000115459 0)
(0.0931054 0.000118758 0)
(0.0929136 0.000122125 0)
(0.0927202 0.000125566 0)
(0.0925254 0.000129086 0)
(0.0923292 0.000132693 0)
(0.0921315 0.000136401 0)
(0.0919324 0.000140224 0)
(0.0917318 0.000144181 0)
(0.0915296 0.000148298 0)
(0.0913258 0.000152603 0)
(0.0911202 0.000157131 0)
(0.0909128 0.000161923 0)
(0.0907032 0.000167032 0)
(0.0904913 0.000172519 0)
(0.0902766 0.00017846 0)
(0.0900589 0.000184944 0)
(0.0898377 0.000192083 0)
(0.0896123 0.000200011 0)
(0.0893822 0.000208893 0)
(0.0891463 0.000218938 0)
(0.0889038 0.000230406 0)
(0.0886534 0.000243622 0)
(0.0883934 0.000259007 0)
(0.0881221 0.000277096 0)
(0.0878372 0.000298585 0)
(0.0875356 0.000324383 0)
(0.0872139 0.000355694 0)
(0.0868674 0.000394128 0)
(0.0864902 0.000441872 0)
(0.086075 0.000501933 0)
(0.085612 0.000578517 0)
(0.0850884 0.0006776 0)
(0.0844874 0.000807824 0)
(0.0837863 0.000981911 0)
(0.0829541 0.00121891 0)
(0.0819489 0.00154776 0)
(0.0807126 0.00201303 0)
(0.0791666 0.00268355 0)
(0.0772056 0.00366485 0)
(0.0746881 0.0051154 0)
(0.071454 0.00726632 0)
(0.0675494 0.0103827 0)
(0.0642398 0.0143323 0)
(0.0999468 0.00010389 0)
(0.0996664 0.000175296 0)
(0.0993064 0.000166161 0)
(0.0990332 0.000119035 0)
(0.0988496 8.38462e-05 0)
(0.0987093 7.16804e-05 0)
(0.0985775 7.37465e-05 0)
(0.0984394 8.06669e-05 0)
(0.0982925 8.76723e-05 0)
(0.0981385 9.33565e-05 0)
(0.0979799 9.77531e-05 0)
(0.0978184 0.000101245 0)
(0.0976554 0.00010418 0)
(0.0974914 0.000106796 0)
(0.097327 0.00010924 0)
(0.0971622 0.000111607 0)
(0.0969973 0.000113964 0)
(0.0968323 0.000116354 0)
(0.0966671 0.000118818 0)
(0.0965017 0.000121385 0)
(0.096336 0.000124087 0)
(0.09617 0.000126948 0)
(0.0960033 0.000129992 0)
(0.095836 0.000133239 0)
(0.0956677 0.0001367 0)
(0.0954985 0.000140381 0)
(0.095328 0.000144279 0)
(0.0951562 0.000148391 0)
(0.094983 0.000152703 0)
(0.0948083 0.000157202 0)
(0.094632 0.000161873 0)
(0.0944541 0.000166699 0)
(0.0942745 0.000171669 0)
(0.0940934 0.000176769 0)
(0.0939105 0.000181989 0)
(0.0937261 0.000187318 0)
(0.0935401 0.000192753 0)
(0.0933526 0.000198296 0)
(0.0931636 0.000203949 0)
(0.0929732 0.000209718 0)
(0.0927813 0.00021561 0)
(0.092588 0.000221637 0)
(0.0923934 0.000227812 0)
(0.0921974 0.000234156 0)
(0.092 0.000240694 0)
(0.0918011 0.00024746 0)
(0.0916009 0.000254494 0)
(0.091399 0.000261846 0)
(0.0911956 0.000269574 0)
(0.0909903 0.000277748 0)
(0.090783 0.000286455 0)
(0.0905736 0.0002958 0)
(0.0903616 0.000305908 0)
(0.0901468 0.000316932 0)
(0.0899287 0.000329055 0)
(0.0897067 0.000342503 0)
(0.0894803 0.000357555 0)
(0.0892487 0.000374555 0)
(0.0890108 0.000393934 0)
(0.0887657 0.000416237 0)
(0.0885118 0.000442153 0)
(0.0882475 0.000472563 0)
(0.0879707 0.000508606 0)
(0.0876789 0.000551761 0)
(0.0873689 0.000603968 0)
(0.0870368 0.000667806 0)
(0.0866777 0.000746735 0)
(0.0862856 0.00084546 0)
(0.0858527 0.000970456 0)
(0.0853693 0.00113076 0)
(0.0848234 0.00133914 0)
(0.0841995 0.00161388 0)
(0.0834787 0.00198144 0)
(0.0826381 0.00248031 0)
(0.0816513 0.00316648 0)
(0.0804918 0.00412006 0)
(0.0791408 0.0054509 0)
(0.0776034 0.00729647 0)
(0.0759508 0.00979675 0)
(0.0744489 0.0129716 0)
(0.0737903 0.0162379 0)
(0.0999563 0.000143719 0)
(0.0997055 0.000247397 0)
(0.0993679 0.000237687 0)
(0.0990975 0.000173236 0)
(0.0989062 0.000123774 0)
(0.0987571 0.000105942 0)
(0.0986192 0.000108144 0)
(0.0984781 0.000117427 0)
(0.0983303 0.000127059 0)
(0.0981768 0.000134979 0)
(0.0980195 0.000141165 0)
(0.0978597 0.000146116 0)
(0.0976985 0.000150304 0)
(0.0975365 0.000154053 0)
(0.0973741 0.000157569 0)
(0.0972114 0.000160985 0)
(0.0970485 0.000164391 0)
(0.0968854 0.000167853 0)
(0.0967222 0.000171425 0)
(0.0965587 0.00017515 0)
(0.0963949 0.00017907 0)
(0.0962306 0.00018322 0)
(0.0960656 0.000187635 0)
(0.0959 0.000192339 0)
(0.0957334 0.000197351 0)
(0.0955657 0.000202676 0)
(0.0953969 0.000208311 0)
(0.0952267 0.000214249 0)
(0.0950552 0.000220473 0)
(0.0948821 0.000226962 0)
(0.0947075 0.000233696 0)
(0.0945313 0.000240651 0)
(0.0943535 0.000247809 0)
(0.0941741 0.000255154 0)
(0.0939932 0.000262666 0)
(0.0938107 0.000270335 0)
(0.0936267 0.000278154 0)
(0.0934413 0.000286124 0)
(0.0932544 0.000294251 0)
(0.0930662 0.00030254 0)
(0.0928766 0.000311002 0)
(0.0926858 0.000319653 0)
(0.0924936 0.000328514 0)
(0.0923001 0.000337611 0)
(0.0921054 0.00034698 0)
(0.0919094 0.00035667 0)
(0.0917121 0.000366736 0)
(0.0915133 0.000377247 0)
(0.0913131 0.000388284 0)
(0.0911113 0.000399947 0)
(0.0909077 0.000412356 0)
(0.0907021 0.000425656 0)
(0.0904943 0.000440023 0)
(0.090284 0.000455669 0)
(0.0900707 0.000472849 0)
(0.0898541 0.000491876 0)
(0.0896335 0.000513134 0)
(0.0894083 0.000537097 0)
(0.0891777 0.000564358 0)
(0.0889407 0.000595659 0)
(0.0886962 0.000631937 0)
(0.0884426 0.000674383 0)
(0.0881784 0.00072452 0)
(0.0879014 0.000784313 0)
(0.0876092 0.000856313 0)
(0.0872987 0.000943863 0)
(0.0869665 0.00105139 0)
(0.0866082 0.00118478 0)
(0.0862187 0.001352 0)
(0.0857923 0.00156383 0)
(0.0853223 0.00183507 0)
(0.084802 0.00218605 0)
(0.0842248 0.00264486 0)
(0.0835868 0.00324998 0)
(0.0828896 0.00405324 0)
(0.0821474 0.00512155 0)
(0.0813978 0.00653351 0)
(0.0807185 0.00836248 0)
(0.0802508 0.0106301 0)
(0.0802246 0.0131918 0)
(0.080918 0.0154876 0)
(0.0999667 0.000179771 0)
(0.0997532 0.00031717 0)
(0.099445 0.000310569 0)
(0.0991796 0.000231832 0)
(0.0989798 0.000168901 0)
(0.0988201 0.000144856 0)
(0.0986747 0.00014636 0)
(0.0985298 0.000157364 0)
(0.0983811 0.000169246 0)
(0.0982284 0.000179214 0)
(0.0980727 0.000187117 0)
(0.0979152 0.000193514 0)
(0.0977566 0.000198974 0)
(0.0975972 0.000203893 0)
(0.0974375 0.00020853 0)
(0.0972775 0.000213052 0)
(0.0971174 0.000217575 0)
(0.096957 0.000222184 0)
(0.0967964 0.000226945 0)
(0.0966354 0.000231915 0)
(0.0964741 0.000237146 0)
(0.0963122 0.000242685 0)
(0.0961496 0.000248571 0)
(0.0959862 0.000254838 0)
(0.0958218 0.000261506 0)
(0.0956564 0.000268582 0)
(0.0954897 0.000276063 0)
(0.0953217 0.000283936 0)
(0.0951523 0.00029218 0)
(0.0949815 0.000300769 0)
(0.0948092 0.000309674 0)
(0.0946353 0.000318866 0)
(0.0944599 0.000328321 0)
(0.094283 0.000338015 0)
(0.0941046 0.000347928 0)
(0.0939248 0.000358042 0)
(0.0937435 0.000368351 0)
(0.0935609 0.000378854 0)
(0.093377 0.000389556 0)
(0.0931918 0.000400465 0)
(0.0930053 0.000411596 0)
(0.0928177 0.000422967 0)
(0.0926289 0.000434605 0)
(0.092439 0.000446544 0)
(0.0922479 0.000458831 0)
(0.0920557 0.000471524 0)
(0.0918624 0.000484695 0)
(0.0916679 0.00049843 0)
(0.0914721 0.000512833 0)
(0.0912749 0.000528029 0)
(0.0910763 0.00054417 0)
(0.090876 0.000561439 0)
(0.0906739 0.000580056 0)
(0.0904697 0.000600288 0)
(0.0902631 0.000622455 0)
(0.0900537 0.000646946 0)
(0.0898411 0.00067424 0)
(0.0896248 0.000704925 0)
(0.0894041 0.000739729 0)
(0.0891783 0.000779562 0)
(0.0889464 0.000825563 0)
(0.0887075 0.000879168 0)
(0.0884602 0.000942191 0)
(0.0882032 0.00101695 0)
(0.0879348 0.00110639 0)
(0.0876531 0.00121435 0)
(0.0873561 0.00134576 0)
(0.0870415 0.00150707 0)
(0.0867072 0.0017067 0)
(0.0863513 0.0019557 0)
(0.0859729 0.00226859 0)
(0.0855726 0.00266439 0)
(0.0851547 0.00316776 0)
(0.0847291 0.00381007 0)
(0.0843157 0.0046296 0)
(0.0839501 0.00566943 0)
(0.083691 0.00696958 0)
(0.0836287 0.00854763 0)
(0.0838873 0.0103598 0)
(0.0846088 0.012234 0)
(0.0858779 0.0137857 0)
(0.0999773 0.000210516 0)
(0.0998042 0.000382305 0)
(0.0995302 0.000383516 0)
(0.0992728 0.00029481 0)
(0.0990654 0.000219906 0)
(0.098895 0.000189181 0)
(0.0987416 0.00018896 0)
(0.0985928 0.000200812 0)
(0.0984431 0.000214387 0)
(0.0982914 0.000226105 0)
(0.0981379 0.000235582 0)
(0.0979832 0.000243372 0)
(0.0978276 0.000250098 0)
(0.0976715 0.000256211 0)
(0.0975151 0.000262012 0)
(0.0973585 0.000267697 0)
(0.0972017 0.000273407 0)
(0.0970446 0.000279241 0)
(0.0968872 0.00028528 0)
(0.0967294 0.000291591 0)
(0.0965711 0.000298237 0)
(0.0964121 0.000305271 0)
(0.0962524 0.000312739 0)
(0.0960918 0.000320681 0)
(0.0959302 0.000329118 0)
(0.0957675 0.000338058 0)
(0.0956035 0.000347494 0)
(0.0954383 0.000357412 0)
(0.0952717 0.000367783 0)
(0.0951036 0.000378576 0)
(0.0949341 0.000389755 0)
(0.0947631 0.000401284 0)
(0.0945907 0.000413132 0)
(0.0944169 0.000425272 0)
(0.0942417 0.000437678 0)
(0.0940651 0.000450329 0)
(0.0938873 0.000463217 0)
(0.0937082 0.000476338 0)
(0.0935279 0.000489697 0)
(0.0933464 0.000503304 0)
(0.0931639 0.000517176 0)
(0.0929804 0.000531335 0)
(0.0927958 0.000545811 0)
(0.0926103 0.000560647 0)
(0.0924238 0.000575896 0)
(0.0922364 0.000591627 0)
(0.0920481 0.000607925 0)
(0.0918589 0.000624892 0)
(0.0916686 0.000642649 0)
(0.0914774 0.000661345 0)
(0.091285 0.000681156 0)
(0.0910914 0.0007023 0)
(0.0908965 0.000725032 0)
(0.0907 0.000749664 0)
(0.0905018 0.000776569 0)
(0.0903017 0.000806199 0)
(0.0900992 0.000839105 0)
(0.0898941 0.000875961 0)
(0.0896859 0.000917598 0)
(0.0894741 0.000965042 0)
(0.0892583 0.00101957 0)
(0.0890377 0.00108276 0)
(0.0888116 0.0011566 0)
(0.0885794 0.00124357 0)
(0.0883403 0.00134678 0)
(0.0880936 0.00147018 0)
(0.0878389 0.00161871 0)
(0.087576 0.00179866 0)
(0.0873054 0.00201792 0)
(0.0870287 0.00228641 0)
(0.0867496 0.00261652 0)
(0.0864744 0.00302345 0)
(0.086214 0.00352544 0)
(0.085986 0.00414346 0)
(0.0858177 0.00489982 0)
(0.0857495 0.00581448 0)
(0.0858376 0.00689727 0)
(0.0861555 0.00813355 0)
(0.0867865 0.00946141 0)
(0.087802 0.0107431 0)
(0.0892099 0.0117477 0)
(0.0999868 0.000235065 0)
(0.0998533 0.000441113 0)
(0.0996152 0.000455287 0)
(0.0993691 0.000361754 0)
(0.0991569 0.000277002 0)
(0.0989772 0.000239357 0)
(0.0988166 0.000236344 0)
(0.0986642 0.000248042 0)
(0.0985139 0.000262628 0)
(0.0983635 0.0002757 0)
(0.0982124 0.000286546 0)
(0.0980608 0.000295636 0)
(0.0979088 0.000303599 0)
(0.0977564 0.000310917 0)
(0.0976039 0.000317918 0)
(0.0974511 0.000324822 0)
(0.0972982 0.00033179 0)
(0.0971449 0.000338933 0)
(0.0969912 0.000346344 0)
(0.096837 0.0003541 0)
(0.0966822 0.00036227 0)
(0.0965266 0.000370914 0)
(0.0963702 0.000380082 0)
(0.0962129 0.000389816 0)
(0.0960545 0.000400139 0)
(0.095895 0.000411058 0)
(0.0957342 0.000422562 0)
(0.0955721 0.000434631 0)
(0.0954087 0.000447232 0)
(0.095244 0.000460327 0)
(0.0950778 0.000473874 0)
(0.0949103 0.00048783 0)
(0.0947414 0.000502157 0)
(0.0945712 0.000516824 0)
(0.0943998 0.000531799 0)
(0.0942271 0.00054706 0)
(0.0940532 0.000562594 0)
(0.0938783 0.000578396 0)
(0.0937023 0.000594469 0)
(0.0935253 0.000610824 0)
(0.0933475 0.000627479 0)
(0.0931687 0.000644458 0)
(0.0929892 0.000661797 0)
(0.0928089 0.00067954 0)
(0.0926279 0.000697749 0)
(0.0924462 0.0007165 0)
(0.0922639 0.000735885 0)
(0.092081 0.000756019 0)
(0.0918974 0.000777038 0)
(0.0917132 0.000799104 0)
(0.0915283 0.000822416 0)
(0.0913427 0.000847211 0)
(0.0911564 0.000873773 0)
(0.0909692 0.000902443 0)
(0.0907811 0.00093363 0)
(0.090592 0.000967826 0)
(0.0904016 0.00100563 0)
(0.0902099 0.00104775 0)
(0.0900167 0.00109509 0)
(0.0898217 0.00114872 0)
(0.0896249 0.00120996 0)
(0.0894259 0.00128044 0)
(0.0892248 0.00136214 0)
(0.0890215 0.00145751 0)
(0.0888162 0.00156956 0)
(0.0886094 0.00170195 0)
(0.088402 0.00185919 0)
(0.0881956 0.00204674 0)
(0.087993 0.00227116 0)
(0.0877984 0.00254028 0)
(0.0876182 0.00286319 0)
(0.0874619 0.00325015 0)
(0.0873433 0.00371219 0)
(0.0872819 0.00426006 0)
(0.0873042 0.00490242 0)
(0.0874451 0.0056424 0)
(0.0877479 0.00647212 0)
(0.0882615 0.00736454 0)
(0.0890326 0.00826335 0)
(0.0900892 0.00907456 0)
(0.091414 0.00966942 0)
(0.0999946 0.000253316 0)
(0.0998962 0.000492735 0)
(0.0996934 0.00052482 0)
(0.0994616 0.000431865 0)
(0.0992483 0.000339874 0)
(0.0990623 0.000295419 0)
(0.0988962 0.000288683 0)
(0.0987409 0.000299223 0)
(0.0985904 0.000314084 0)
(0.0984417 0.000328055 0)
(0.0982934 0.000340017 0)
(0.0981453 0.000350281 0)
(0.0979971 0.000359431 0)
(0.0978488 0.000367951 0)
(0.0977005 0.00037618 0)
(0.0975519 0.000384357 0)
(0.0974031 0.000392653 0)
(0.0972539 0.000401191 0)
(0.0971043 0.000410072 0)
(0.0969541 0.00041938 0)
(0.0968031 0.00042919 0)
(0.0966514 0.000439564 0)
(0.0964988 0.000450553 0)
(0.0963451 0.0004622 0)
(0.0961903 0.000474528 0)
(0.0960343 0.000487539 0)
(0.0958771 0.000501219 0)
(0.0957187 0.000515542 0)
(0.0955589 0.000530469 0)
(0.0953979 0.000545956 0)
(0.0952355 0.000561953 0)
(0.0950719 0.000578411 0)
(0.094907 0.000595287 0)
(0.094741 0.000612543 0)
(0.0945738 0.000630144 0)
(0.0944056 0.000648065 0)
(0.0942363 0.000666288 0)
(0.0940661 0.000684807 0)
(0.0938951 0.000703621 0)
(0.0937232 0.000722741 0)
(0.0935507 0.000742184 0)
(0.0933775 0.000761977 0)
(0.0932037 0.000782156 0)
(0.0930294 0.000802769 0)
(0.0928547 0.000823879 0)
(0.0926796 0.000845565 0)
(0.0925042 0.000867925 0)
(0.0923285 0.000891079 0)
(0.0921526 0.000915169 0)
(0.0919765 0.000940367 0)
(0.0918003 0.000966881 0)
(0.091624 0.000994958 0)
(0.0914476 0.00102489 0)
(0.0912712 0.00105704 0)
(0.0910948 0.00109182 0)
(0.0909183 0.00112973 0)
(0.090742 0.00117139 0)
(0.0905657 0.00121751 0)
(0.0903896 0.00126898 0)
(0.0902138 0.00132685 0)
(0.0900386 0.00139239 0)
(0.0898641 0.00146714 0)
(0.0896908 0.00155294 0)
(0.0895195 0.001652 0)
(0.0893511 0.00176694 0)
(0.089187 0.00190086 0)
(0.0890294 0.00205742 0)
(0.0888811 0.00224081 0)
(0.0887463 0.00245579 0)
(0.0886306 0.00270763 0)
(0.0885417 0.00300183 0)
(0.0884899 0.00334383 0)
(0.0884888 0.00373827 0)
(0.0885557 0.00418797 0)
(0.0887123 0.00469227 0)
(0.088984 0.00524476 0)
(0.0893991 0.00583024 0)
(0.0899854 0.00642121 0)
(0.0907642 0.00697483 0)
(0.0917412 0.0074326 0)
(0.0928944 0.00772641 0)
(0.1 0.000265827 0)
(0.0999307 0.000537064 0)
(0.0997604 0.000591302 0)
(0.0995454 0.000504092 0)
(0.0993352 0.000407755 0)
(0.0991464 0.000357002 0)
(0.0989771 0.000345883 0)
(0.0988202 0.000354381 0)
(0.0986702 0.000368801 0)
(0.0985235 0.000383197 0)
(0.0983783 0.000395994 0)
(0.0982338 0.000407281 0)
(0.0980897 0.000417551 0)
(0.0979458 0.000427258 0)
(0.0978018 0.00043674 0)
(0.0976577 0.000446238 0)
(0.0975133 0.000455932 0)
(0.0973685 0.000465953 0)
(0.0972232 0.000476404 0)
(0.0970772 0.000487373 0)
(0.0969304 0.000498938 0)
(0.0967827 0.000511162 0)
(0.0966341 0.000524094 0)
(0.0964844 0.000537774 0)
(0.0963335 0.000552221 0)
(0.0961815 0.000567434 0)
(0.0960282 0.000583393 0)
(0.0958737 0.000600064 0)
(0.095718 0.000617403 0)
(0.0955611 0.000635357 0)
(0.095403 0.000653872 0)
(0.0952437 0.000672893 0)
(0.0950833 0.000692369 0)
(0.0949219 0.000712257 0)
(0.0947595 0.000732518 0)
(0.0945962 0.000753123 0)
(0.0944321 0.000774052 0)
(0.0942672 0.000795292 0)
(0.0941017 0.000816841 0)
(0.0939355 0.000838707 0)
(0.0937689 0.000860903 0)
(0.0936019 0.000883458 0)
(0.0934346 0.000906404 0)
(0.093267 0.000929789 0)
(0.0930994 0.000953674 0)
(0.0929316 0.000978136 0)
(0.092764 0.00100327 0)
(0.0925965 0.0010292 0)
(0.0924292 0.00105606 0)
(0.0922623 0.00108403 0)
(0.0920959 0.0011133 0)
(0.09193 0.00114413 0)
(0.0917649 0.00117679 0)
(0.0916005 0.00121163 0)
(0.0914372 0.00124906 0)
(0.0912751 0.00128957 0)
(0.0911143 0.00133371 0)
(0.0909553 0.00138217 0)
(0.0907982 0.00143576 0)
(0.0906435 0.00149543 0)
(0.0904919 0.00156232 0)
(0.0903439 0.00163774 0)
(0.0902005 0.00172324 0)
(0.0900629 0.00182061 0)
(0.0899328 0.00193191 0)
(0.0898124 0.00205945 0)
(0.0897043 0.00220579 0)
(0.0896122 0.00237368 0)
(0.0895408 0.00256596 0)
(0.0894962 0.00278534 0)
(0.0894859 0.00303416 0)
(0.0895194 0.0033139 0)
(0.0896082 0.00362458 0)
(0.0897656 0.0039639 0)
(0.090007 0.00432623 0)
(0.0903487 0.00470137 0)
(0.0908066 0.00507336 0)
(0.0913939 0.00541957 0)
(0.0921171 0.00571077 0)
(0.0929722 0.00591295 0)
(0.0939395 0.00599203 0)
(0.100004 0.000273556 0)
(0.0999566 0.000574563 0)
(0.0998149 0.000654221 0)
(0.099618 0.000577323 0)
(0.0994147 0.000479607 0)
(0.0992268 0.000423441 0)
(0.0990567 0.000407624 0)
(0.0988999 0.0004134 0)
(0.0987511 0.000426752 0)
(0.0986068 0.000441119 0)
(0.0984649 0.000454466 0)
(0.0983243 0.000466614 0)
(0.0981844 0.000477924 0)
(0.0980449 0.000488797 0)
(0.0979054 0.000499549 0)
(0.0977659 0.000510415 0)
(0.097626 0.000521577 0)
(0.0974858 0.000533165 0)
(0.0973449 0.000545284 0)
(0.0972033 0.000558023 0)
(0.0970609 0.000571457 0)
(0.0969175 0.000585648 0)
(0.0967731 0.00060064 0)
(0.0966276 0.000616466 0)
(0.0964809 0.000633141 0)
(0.0963331 0.000650657 0)
(0.0961842 0.000668987 0)
(0.096034 0.000688089 0)
(0.0958827 0.000707911 0)
(0.0957303 0.000728395 0)
(0.0955768 0.000749478 0)
(0.0954222 0.000771102 0)
(0.0952668 0.000793209 0)
(0.0951104 0.000815748 0)
(0.0949533 0.000838679 0)
(0.0947954 0.000861967 0)
(0.0946369 0.000885586 0)
(0.0944779 0.000909519 0)
(0.0943184 0.000933758 0)
(0.0941586 0.000958306 0)
(0.0939985 0.000983173 0)
(0.0938383 0.00100838 0)
(0.0936781 0.00103396 0)
(0.093518 0.00105995 0)
(0.093358 0.00108641 0)
(0.0931985 0.0011134 0)
(0.0930394 0.00114102 0)
(0.092881 0.00116936 0)
(0.0927233 0.00119857 0)
(0.0925665 0.0012288 0)
(0.0924109 0.00126023 0)
(0.0922566 0.00129308 0)
(0.0921038 0.00132762 0)
(0.0919528 0.00136416 0)
(0.0918039 0.00140305 0)
(0.0916574 0.00144472 0)
(0.0915137 0.00148966 0)
(0.0913733 0.00153845 0)
(0.0912366 0.00159178 0)
(0.0911045 0.00165041 0)
(0.0909778 0.00171524 0)
(0.0908574 0.0017873 0)
(0.0907448 0.00186772 0)
(0.0906414 0.00195777 0)
(0.0905494 0.0020588 0)
(0.0904711 0.00217226 0)
(0.0904098 0.00229955 0)
(0.0903692 0.00244202 0)
(0.0903539 0.00260073 0)
(0.0903694 0.00277632 0)
(0.0904225 0.00296866 0)
(0.0905206 0.00317653 0)
(0.0906724 0.00339715 0)
(0.0908873 0.00362568 0)
(0.0911747 0.00385472 0)
(0.0915438 0.00407386 0)
(0.092002 0.00426952 0)
(0.0925538 0.00442524 0)
(0.0931985 0.00452266 0)
(0.0939289 0.00454339 0)
(0.0947293 0.00447191 0)
(0.100006 0.000277616 0)
(0.0999746 0.000606056 0)
(0.0998573 0.000713348 0)
(0.0996788 0.000650541 0)
(0.0994854 0.000554291 0)
(0.0993017 0.000493903 0)
(0.0991333 0.000473431 0)
(0.098978 0.000476056 0)
(0.0988313 0.000487846 0)
(0.0986899 0.000501791 0)
(0.0985516 0.000515418 0)
(0.098415 0.000528264 0)
(0.0982794 0.000540532 0)
(0.0981444 0.000552543 0)
(0.0980095 0.000564579 0)
(0.0978746 0.000576858 0)
(0.0977394 0.000589552 0)
(0.0976037 0.000602791 0)
(0.0974674 0.000616674 0)
(0.0973303 0.000631286 0)
(0.0971924 0.000646698 0)
(0.0970534 0.000662965 0)
(0.0969135 0.000680126 0)
(0.0967724 0.000698204 0)
(0.0966302 0.000717203 0)
(0.0964869 0.000737109 0)
(0.0963425 0.000757888 0)
(0.096197 0.000779487 0)
(0.0960504 0.000801847 0)
(0.0959029 0.000824903 0)
(0.0957544 0.000848586 0)
(0.095605 0.000872829 0)
(0.0954549 0.000897571 0)
(0.095304 0.000922755 0)
(0.0951526 0.000948333 0)
(0.0950006 0.000974265 0)
(0.0948482 0.00100052 0)
(0.0946955 0.00102707 0)
(0.0945426 0.00105391 0)
(0.0943896 0.00108103 0)
(0.0942367 0.00110842 0)
(0.0940839 0.00113612 0)
(0.0939314 0.00116412 0)
(0.0937794 0.00119247 0)
(0.0936279 0.00122121 0)
(0.0934773 0.00125038 0)
(0.0933276 0.00128007 0)
(0.093179 0.00131036 0)
(0.0930318 0.00134135 0)
(0.0928861 0.00137318 0)
(0.0927422 0.001406 0)
(0.0926005 0.00143999 0)
(0.0924611 0.00147535 0)
(0.0923245 0.00151234 0)
(0.0921911 0.00155125 0)
(0.0920613 0.0015924 0)
(0.0919357 0.00163617 0)
(0.0918149 0.00168299 0)
(0.0916997 0.00173336 0)
(0.0915909 0.00178782 0)
(0.0914896 0.00184696 0)
(0.0913971 0.00191144 0)
(0.0913149 0.00198194 0)
(0.0912448 0.00205914 0)
(0.0911889 0.0021437 0)
(0.0911497 0.00223618 0)
(0.0911304 0.00233698 0)
(0.0911344 0.0024462 0)
(0.0911658 0.00256356 0)
(0.0912292 0.00268815 0)
(0.0913297 0.00281827 0)
(0.0914729 0.00295117 0)
(0.0916646 0.00308281 0)
(0.0919105 0.00320761 0)
(0.0922159 0.00331833 0)
(0.0925849 0.00340611 0)
(0.09302 0.00346069 0)
(0.093521 0.00347112 0)
(0.0940846 0.00342679 0)
(0.0947032 0.00331884 0)
(0.0953652 0.00314172 0)
(0.100006 0.000279093 0)
(0.0999863 0.000632534 0)
(0.0998889 0.000768691 0)
(0.0997285 0.000722893 0)
(0.099547 0.000630699 0)
(0.0993701 0.000567486 0)
(0.0992057 0.000542724 0)
(0.0990533 0.000542031 0)
(0.0989096 0.000551929 0)
(0.0987716 0.000565141 0)
(0.098637 0.000578815 0)
(0.0985046 0.00059221 0)
(0.0983734 0.000605355 0)
(0.0982429 0.000618478 0)
(0.0981127 0.000631811 0)
(0.0979824 0.000645544 0)
(0.0978518 0.000659834 0)
(0.0977208 0.000674802 0)
(0.0975891 0.000690539 0)
(0.0974566 0.00070712 0)
(0.0973233 0.000724608 0)
(0.097189 0.000743051 0)
(0.0970536 0.000762476 0)
(0.0969172 0.000782893 0)
(0.0967797 0.000804296 0)
(0.0966411 0.000826661 0)
(0.0965015 0.000849945 0)
(0.096361 0.000874086 0)
(0.0962195 0.000899016 0)
(0.0960772 0.00092466 0)
(0.095934 0.000950946 0)
(0.0957902 0.000977799 0)
(0.0956458 0.00100515 0)
(0.0955009 0.00103293 0)
(0.0953555 0.0010611 0)
(0.0952099 0.0010896 0)
(0.0950641 0.00111839 0)
(0.0949182 0.00114745 0)
(0.0947724 0.00117674 0)
(0.0946268 0.00120625 0)
(0.0944815 0.00123597 0)
(0.0943367 0.0012659 0)
(0.0941926 0.00129605 0)
(0.0940493 0.00132643 0)
(0.093907 0.00135705 0)
(0.093766 0.00138796 0)
(0.0936263 0.0014192 0)
(0.0934884 0.00145082 0)
(0.0933524 0.0014829 0)
(0.0932186 0.00151552 0)
(0.0930873 0.00154879 0)
(0.092959 0.00158282 0)
(0.0928339 0.00161776 0)
(0.0927125 0.00165377 0)
(0.0925954 0.00169103 0)
(0.0924831 0.00172975 0)
(0.0923763 0.00177016 0)
(0.0922757 0.00181251 0)
(0.0921822 0.00185705 0)
(0.0920969 0.00190408 0)
(0.0920208 0.00195385 0)
(0.0919554 0.00200663 0)
(0.0919022 0.00206263 0)
(0.0918631 0.00212199 0)
(0.09184 0.0021847 0)
(0.0918354 0.0022506 0)
(0.091852 0.00231925 0)
(0.0918926 0.00238986 0)
(0.0919606 0.00246121 0)
(0.0920594 0.00253146 0)
(0.0921927 0.00259811 0)
(0.0923641 0.0026578 0)
(0.0925771 0.00270627 0)
(0.0928347 0.00273828 0)
(0.0931392 0.0027477 0)
(0.0934918 0.00272769 0)
(0.0938924 0.00267115 0)
(0.0943388 0.00257138 0)
(0.0948271 0.00242291 0)
(0.0953508 0.00222254 0)
(0.0959015 0.0019701 0)
(0.100006 0.000278928 0)
(0.0999932 0.000655028 0)
(0.0999119 0.000820446 0)
(0.0997684 0.000793749 0)
(0.0995999 0.000707864 0)
(0.0994316 0.000643315 0)
(0.099273 0.000614886 0)
(0.0991249 0.00061095 0)
(0.098985 0.000618797 0)
(0.0988509 0.000631064 0)
(0.0987204 0.000644605 0)
(0.0985923 0.000658423 0)
(0.0984656 0.000672377 0)
(0.0983396 0.000686592 0)
(0.098214 0.000701235 0)
(0.0980884 0.000716462 0)
(0.0979625 0.000732407 0)
(0.0978361 0.000749176 0)
(0.0977091 0.000766847 0)
(0.0975813 0.000785481 0)
(0.0974527 0.00080513 0)
(0.0973231 0.000825829 0)
(0.0971925 0.000847593 0)
(0.0970609 0.000870416 0)
(0.0969283 0.00089428 0)
(0.0967947 0.000919148 0)
(0.0966603 0.000944967 0)
(0.096525 0.000971664 0)
(0.0963889 0.000999164 0)
(0.0962521 0.00102738 0)
(0.0961147 0.00105624 0)
(0.0959768 0.00108566 0)
(0.0958385 0.00111556 0)
(0.0956999 0.00114587 0)
(0.0955611 0.00117652 0)
(0.0954222 0.00120747 0)
(0.0952834 0.00123866 0)
(0.0951448 0.00127005 0)
(0.0950066 0.00130159 0)
(0.0948688 0.00133326 0)
(0.0947318 0.00136503 0)
(0.0945955 0.00139688 0)
(0.0944603 0.00142879 0)
(0.0943264 0.00146077 0)
(0.0941939 0.00149279 0)
(0.094063 0.00152486 0)
(0.0939342 0.001557 0)
(0.0938075 0.00158921 0)
(0.0936834 0.00162153 0)
(0.0935622 0.00165398 0)
(0.0934442 0.00168659 0)
(0.0933299 0.00171942 0)
(0.0932197 0.00175252 0)
(0.0931142 0.00178594 0)
(0.0930139 0.00181974 0)
(0.0929194 0.00185397 0)
(0.0928316 0.0018887 0)
(0.0927512 0.00192396 0)
(0.0926792 0.0019598 0)
(0.0926166 0.00199619 0)
(0.0925647 0.00203311 0)
(0.0925247 0.00207042 0)
(0.0924982 0.00210791 0)
(0.0924868 0.00214525 0)
(0.0924923 0.00218191 0)
(0.0925168 0.00221717 0)
(0.0925624 0.00225001 0)
(0.0926314 0.00227908 0)
(0.0927262 0.00230261 0)
(0.0928491 0.00231837 0)
(0.0930025 0.0023236 0)
(0.0931885 0.00231499 0)
(0.0934088 0.00228863 0)
(0.0936646 0.00224014 0)
(0.0939565 0.00216472 0)
(0.0942842 0.0020575 0)
(0.0946461 0.00191389 0)
(0.0950398 0.00173018 0)
(0.0954615 0.00150422 0)
(0.0959061 0.00123606 0)
(0.0963677 0.000928376 0)
(0.100005 0.000277885 0)
(0.0999966 0.000674531 0)
(0.0999279 0.000868955 0)
(0.0998 0.000862717 0)
(0.0996448 0.000785009 0)
(0.0994865 0.000720597 0)
(0.099335 0.000689299 0)
(0.0991922 0.000682404 0)
(0.099057 0.000688206 0)
(0.0989272 0.000699422 0)
(0.0988012 0.000712712 0)
(0.0986775 0.000726866 0)
(0.0985553 0.000741581 0)
(0.098434 0.00075687 0)
(0.098313 0.000772838 0)
(0.098192 0.000789598 0)
(0.0980708 0.000807251 0)
(0.0979492 0.000825882 0)
(0.0978269 0.000845553 0)
(0.0977039 0.000866308 0)
(0.09758 0.000888183 0)
(0.0974553 0.000911196 0)
(0.0973296 0.000935348 0)
(0.0972031 0.000960618 0)
(0.0970756 0.000986972 0)
(0.0969473 0.00101436 0)
(0.0968182 0.00104271 0)
(0.0966885 0.00107196 0)
(0.0965581 0.001102 0)
(0.0964272 0.00113275 0)
(0.0962958 0.00116412 0)
(0.0961642 0.00119602 0)
(0.0960324 0.00122836 0)
(0.0959005 0.00126107 0)
(0.0957686 0.00129407 0)
(0.0956369 0.0013273 0)
(0.0955056 0.00136068 0)
(0.0953747 0.00139416 0)
(0.0952445 0.00142768 0)
(0.0951151 0.00146119 0)
(0.0949868 0.00149465 0)
(0.0948596 0.00152801 0)
(0.0947338 0.00156123 0)
(0.0946097 0.00159427 0)
(0.0944875 0.00162709 0)
(0.0943675 0.00165965 0)
(0.0942499 0.00169192 0)
(0.0941351 0.00172386 0)
(0.0940235 0.00175544 0)
(0.0939153 0.00178662 0)
(0.0938111 0.00181735 0)
(0.0937112 0.00184759 0)
(0.0936163 0.0018773 0)
(0.0935268 0.00190639 0)
(0.0934434 0.0019348 0)
(0.0933667 0.00196243 0)
(0.0932976 0.00198914 0)
(0.0932369 0.00201479 0)
(0.0931855 0.00203916 0)
(0.0931444 0.00206199 0)
(0.0931148 0.00208295 0)
(0.0930978 0.00210158 0)
(0.0930948 0.00211735 0)
(0.0931071 0.00212954 0)
(0.0931364 0.00213727 0)
(0.0931842 0.00213943 0)
(0.0932519 0.00213469 0)
(0.0933414 0.00212141 0)
(0.0934541 0.00209764 0)
(0.0935915 0.0020611 0)
(0.0937548 0.00200917 0)
(0.093945 0.00193887 0)
(0.0941628 0.00184697 0)
(0.0944083 0.00173 0)
(0.0946809 0.00158447 0)
(0.0949798 0.00140708 0)
(0.0953031 0.0011951 0)
(0.0956483 0.000946824 0)
(0.0960122 0.000662123 0)
(0.0963912 0.000342933 0)
(0.0967805 -6.14981e-06 0)
(0.100004 0.000276552 0)
(0.0999978 0.00069193 0)
(0.0999388 0.000914627 0)
(0.0998247 0.000929593 0)
(0.0996827 0.000861519 0)
(0.099535 0.000798608 0)
(0.0993916 0.000765346 0)
(0.0992552 0.000755941 0)
(0.0991252 0.000759844 0)
(0.0990003 0.000770009 0)
(0.0988789 0.000783003 0)