/*--------------------------------*- C++ -*----------------------------------*\
| =========                 |                                                 |
| \\      /  F ield         | OpenFOAM: The Open Source CFD Toolbox           |
|  \\    /   O peration     | Version:  2106                                  |
|   \\  /    A nd           | Website:  www.openfoam.com                      |
|    \\/     M anipulation  |                                                 |
\*---------------------------------------------------------------------------*/
FoamFile
{
    version     2.0;
    format      ascii;
    arch        "LSB;label=32;scalar=64";
    class       surfaceScalarField;
    location    "2";
    object      phi;
}
// * * * * * * * * * * * * * * * * * * * * * * * * * * * * * * * * * * * * * //

dimensions      [1 0 -1 0 0 0 0];

oriented        oriented;

internalField   nonuniform List<scalar> 
23692
(
9.31275e-05
-4.79824e-08
9.32142e-05
-8.65484e-08
9.3334e-05
-1.19568e-07
9.34814e-05
-1.47144e-07
9.36522e-05
-1.70403e-07
9.38426e-05
-1.90022e-07
9.40496e-05
-2.0643e-07
9.42702e-05
-2.1994e-07
9.45016e-05
-2.30784e-07
9.47416e-05
-2.39167e-07
9.49877e-05
-2.4531e-07
9.52381e-05
-2.49461e-07
9.5491e-05
-2.51938e-07
9.57452e-05
-2.53106e-07
9.59997e-05
-2.53373e-07
9.62541e-05
-2.53155e-07
9.65082e-05
-2.52856e-07
9.67624e-05
-2.5283e-07
9.70171e-05
-2.5336e-07
9.72733e-05
-2.54648e-07
9.75316e-05
-2.56811e-07
9.77931e-05
-2.59887e-07
9.80586e-05
-2.63842e-07
9.83289e-05
-2.68593e-07
9.86046e-05
-2.74015e-07
9.88864e-05
-2.79966e-07
9.91746e-05
-2.86295e-07
9.94693e-05
-2.92854e-07
9.97707e-05
-2.99504e-07
0.000100079
-3.06122e-07
0.000100393
-3.12595e-07
0.000100714
-3.18832e-07
0.000101041
-3.2475e-07
0.000101374
-3.30283e-07
0.000101711
-3.35371e-07
0.000102053
-3.39965e-07
0.000102399
-3.44018e-07
0.000102749
-3.47489e-07
0.000103102
-3.50339e-07
0.000103456
-3.52528e-07
0.000103812
-3.54016e-07
0.000104169
-3.54763e-07
0.000104526
-3.54725e-07
0.000104883
-3.53854e-07
0.000105237
-3.52101e-07
0.000105589
-3.49407e-07
0.000105936
-3.45711e-07
0.00010628
-3.40945e-07
0.000106617
-3.3503e-07
0.000106947
-3.27878e-07
0.000107269
-3.19388e-07
0.00010758
-3.09447e-07
0.00010788
-2.97922e-07
0.000108167
-2.84661e-07
0.000108439
-2.69488e-07
0.000108693
-2.52191e-07
0.000108928
-2.32526e-07
0.00010914
-2.10201e-07
0.000109327
-1.84864e-07
0.000109485
-1.56093e-07
0.000109611
-1.23374e-07
0.000109699
-8.60779e-08
0.000109745
-4.34247e-08
0.000109741
5.56118e-09
0.000109681
6.21516e-08
0.000109555
1.27986e-07
0.000109352
2.05198e-07
0.000109057
2.96622e-07
0.000108653
4.06088e-07
0.000108116
5.38889e-07
0.000107415
7.02477e-07
0.000106509
9.07602e-07
0.000105341
1.17013e-06
0.000103829
1.51407e-06
0.000101854
1.97665e-06
9.9239e-05
2.61687e-06
9.5711e-05
3.52974e-06
9.08414e-05
4.87134e-06
8.39269e-05
6.91616e-06
7.37294e-05
1.01993e-05
1.61788e-05
5.75523e-05
9.96495e-05
-9.82445e-08
9.97419e-05
-1.78763e-07
9.98697e-05
-2.47231e-07
0.000100027
-3.04295e-07
0.00010021
-3.52439e-07
0.000100413
-3.93046e-07
0.000100634
-4.26997e-07
0.00010087
-4.54947e-07
0.000101117
-4.77382e-07
0.000101374
-4.94724e-07
0.000101637
-5.07415e-07
0.000101904
-5.1599e-07
0.000102174
-5.21091e-07
0.000102446
-5.23479e-07
0.000102718
-5.23994e-07
0.000102989
-5.23506e-07
0.000103261
-5.22838e-07
0.000103532
-5.22729e-07
0.000103804
-5.23768e-07
0.000104077
-5.26373e-07
0.000104353
-5.30788e-07
0.000104632
-5.37087e-07
0.000104915
-5.45208e-07
0.000105203
-5.54971e-07
0.000105497
-5.66124e-07
0.000105797
-5.78371e-07
0.000106105
-5.91401e-07
0.000106419
-6.04907e-07
0.00010674
-6.18601e-07
0.000107068
-6.32226e-07
0.000107403
-6.45555e-07
0.000107745
-6.5839e-07
0.000108093
-6.70568e-07
0.000108447
-6.81947e-07
0.000108806
-6.92407e-07
0.00010917
-7.0184e-07
0.000109539
-7.10156e-07
0.000109911
-7.17267e-07
0.000110286
-7.23091e-07
0.000110663
-7.27548e-07
0.000111042
-7.30556e-07
0.000111422
-7.3203e-07
0.000111801
-7.31881e-07
0.00011218
-7.3001e-07
0.000112557
-7.26314e-07
0.00011293
-7.20676e-07
0.0001133
-7.1297e-07
0.000113664
-7.03052e-07
0.000114023
-6.90763e-07
0.000114373
-6.75922e-07
0.000114714
-6.58326e-07
0.000115045
-6.37739e-07
0.000115363
-6.13893e-07
0.000115667
-5.86477e-07
0.000115955
-5.55128e-07
0.000116225
-5.19422e-07
0.000116474
-4.78859e-07
0.000116699
-4.32847e-07
0.000116897
-3.80676e-07
0.000117064
-3.21494e-07
0.000117197
-2.54265e-07
0.000117291
-1.77726e-07
0.00011734
-9.03178e-08
0.000117338
9.90897e-09
0.000117277
1.25456e-07
0.000117147
2.5954e-07
0.000116938
4.16319e-07
0.000116636
6.0126e-07
0.000116222
8.21672e-07
0.000115676
1.0875e-06
0.000114968
1.41249e-06
0.000114061
1.81604e-06
0.000112908
2.32596e-06
0.000111441
2.98278e-06
0.000109573
3.84638e-06
0.000107186
5.00556e-06
0.000104127
6.59046e-06
0.000100215
8.78517e-06
9.52954e-05
1.1838e-05
8.95e-05
1.59964e-05
2.08916e-05
8.4789e-05
0.000106628
-1.50607e-07
0.000106726
-2.76687e-07
0.000106862
-3.83027e-07
0.00010703
-4.71711e-07
0.000107224
-5.46493e-07
0.000107441
-6.09548e-07
0.000107677
-6.62257e-07
0.000107929
-7.05639e-07
0.000108192
-7.4045e-07
0.000108466
-7.67345e-07
0.000108746
-7.87018e-07
0.000109032
-8.00287e-07
0.00010932
-8.08153e-07
0.00010961
-8.11798e-07
0.000109899
-8.1252e-07
0.000110189
-8.11664e-07
0.000110478
-8.1052e-07
0.000110767
-8.10224e-07
0.000111057
-8.11696e-07
0.000111348
-8.15588e-07
0.000111641
-8.2228e-07
0.000111937
-8.31888e-07
0.000112238
-8.44316e-07
0.000112545
-8.59288e-07
0.000112857
-8.76419e-07
0.000113176
-8.95246e-07
0.000113502
-9.15286e-07
0.000113835
-9.36065e-07
0.000114176
-9.57138e-07
0.000114524
-9.78101e-07
0.000114879
-9.98601e-07
0.000115242
-1.01834e-06
0.000115611
-1.03705e-06
0.000115986
-1.05452e-06
0.000116366
-1.07057e-06
0.000116752
-1.08502e-06
0.000117142
-1.09773e-06
0.000117536
-1.10857e-06
0.000117933
-1.11742e-06
0.000118332
-1.12414e-06
0.000118732
-1.12861e-06
0.000119133
-1.13071e-06
0.000119534
-1.13028e-06
0.000119934
-1.12719e-06
0.000120332
-1.12127e-06
0.000120726
-1.11234e-06
0.000121116
-1.10021e-06
0.0001215
-1.08467e-06
0.000121877
-1.06545e-06
0.000122246
-1.0423e-06
0.000122605
-1.0149e-06
0.000122953
-9.82882e-07
0.000123287
-9.45851e-07
0.000123607
-9.03331e-07
0.000123909
-8.54774e-07
0.000124191
-7.99539e-07
0.000124452
-7.36872e-07
0.000124687
-6.65885e-07
0.000124895
-5.85516e-07
0.00012507
-4.94492e-07
0.000125209
-3.91278e-07
0.000125308
-2.74006e-07
0.000125361
-1.40382e-07
0.00012536
1.24364e-08
0.0001253
1.88052e-07
0.000125171
3.91042e-07
0.000124962
6.27271e-07
0.000124661
9.04331e-07
0.000124253
1.23219e-06
0.000123719
1.6241e-06
0.000123035
2.09789e-06
0.000122176
2.67786e-06
0.000121106
3.39737e-06
0.000119789
4.30244e-06
0.000118181
5.45639e-06
0.000116244
6.94461e-06
0.00011396
8.8765e-06
0.000111371
1.13761e-05
0.00010867
1.45409e-05
0.000106379
1.82895e-05
2.1895e-05
0.000105377
0.000114095
-2.05066e-07
0.000114199
-3.80227e-07
0.000114343
-5.27033e-07
0.000114521
-6.49612e-07
0.000114728
-7.52918e-07
0.000114959
-8.39979e-07
0.00011521
-9.12734e-07
0.000115478
-9.72592e-07
0.000115759
-1.02061e-06
0.00011605
-1.05769e-06
0.000116349
-1.08479e-06
0.000116653
-1.10304e-06
0.00011696
-1.11381e-06
0.000117268
-1.11873e-06
0.000117576
-1.11959e-06
0.000117884
-1.11825e-06
0.000118192
-1.11647e-06
0.000118499
-1.11583e-06
0.000118807
-1.11759e-06
0.000119116
-1.12267e-06
0.000119427
-1.13158e-06
0.000119742
-1.14451e-06
0.000120061
-1.16131e-06
0.000120385
-1.18161e-06
0.000120716
-1.20488e-06
0.000121053
-1.23049e-06
0.000121398
-1.25777e-06
0.00012175
-1.28607e-06
0.00012211
-1.31478e-06
0.000122478
-1.34333e-06
0.000122853
-1.37125e-06
0.000123235
-1.39811e-06
0.000123624
-1.42356e-06
0.00012402
-1.44729e-06
0.000124421
-1.46905e-06
0.000124827
-1.48861e-06
0.000125238
-1.50577e-06
0.000125652
-1.52035e-06
0.000126069
-1.53217e-06
0.000126489
-1.54106e-06
0.00012691
-1.54685e-06
0.000127331
-1.54936e-06
0.000127752
-1.5484e-06
0.000128172
-1.54376e-06
0.000128588
-1.53524e-06
0.000129001
-1.52258e-06
0.000129409
-1.50552e-06
0.000129811
-1.48377e-06
0.000130205
-1.45699e-06
0.000130591
-1.42482e-06
0.000130965
-1.38684e-06
0.000131328
-1.34256e-06
0.000131676
-1.29145e-06
0.000132008
-1.23287e-06
0.000132322
-1.16608e-06
0.000132616
-1.09026e-06
0.000132886
-1.00439e-06
0.00013313
-9.0731e-07
0.000133344
-7.97634e-07
0.000133526
-6.73707e-07
0.000133671
-5.33542e-07
0.000133774
-3.74741e-07
0.000133831
-1.94382e-07
0.000133835
1.1111e-08
0.000133779
2.46197e-07
0.000133656
5.16456e-07
0.000133457
8.28928e-07
0.000133171
1.19254e-06
0.000132787
1.61874e-06
0.000132291
2.12224e-06
0.000131669
2.72219e-06
0.000130906
3.44344e-06
0.000129987
4.3183e-06
0.000128903
5.38833e-06
0.000127656
6.70568e-06
0.00012627
8.33251e-06
0.000124815
1.03345e-05
0.000123432
1.2761e-05
0.000122379
1.55956e-05
0.000122025
1.86464e-05
2.13462e-05
0.000122575
0.000122085
-2.61649e-07
0.000122194
-4.89335e-07
0.000122347
-6.79312e-07
0.000122536
-8.38177e-07
0.000122755
-9.72003e-07
0.000123001
-1.08473e-06
0.000123268
-1.1789e-06
0.000123552
-1.25635e-06
0.000123851
-1.31845e-06
0.00012416
-1.36639e-06
0.000124478
-1.40139e-06
0.000124801
-1.42491e-06
0.000125127
-1.43874e-06
0.000125455
-1.44495e-06
0.000125783
-1.44586e-06
0.00012611
-1.44386e-06
0.000126436
-1.44123e-06
0.000126762
-1.44002e-06
0.000127089
-1.44187e-06
0.000127416
-1.44795e-06
0.000127745
-1.45896e-06
0.000128078
-1.47511e-06
0.000128415
-1.49624e-06
0.000128757
-1.52189e-06
0.000129106
-1.55137e-06
0.000129462
-1.58387e-06
0.000129825
-1.61853e-06
0.000130196
-1.6545e-06
0.000130575
-1.691e-06
0.000130961
-1.72731e-06
0.000131356
-1.76279e-06
0.000131757
-1.79691e-06
0.000132165
-1.8292e-06
0.00013258
-1.85927e-06
0.000133001
-1.88678e-06
0.000133426
-1.91145e-06
0.000133856
-1.93301e-06
0.00013429
-1.95122e-06
0.000134727
-1.96587e-06
0.000135165
-1.97673e-06
0.000135605
-1.98359e-06
0.000136045
-1.9862e-06
0.000136484
-1.98434e-06
0.000136921
-1.97774e-06
0.000137354
-1.96612e-06
0.000137784
-1.94919e-06
0.000138208
-1.92661e-06
0.000138625
-1.898e-06
0.000139034
-1.86295e-06
0.000139433
-1.821e-06
0.000139821
-1.77162e-06
0.000140195
-1.71422e-06
0.000140555
-1.64813e-06
0.000140897
-1.57255e-06
0.000141221
-1.48661e-06
0.000141523
-1.38926e-06
0.0001418
-1.27929e-06
0.000142051
-1.15529e-06
0.000142272
-1.0156e-06
0.000142459
-8.58235e-07
0.000142609
-6.80857e-07
0.000142718
-4.80659e-07
0.00014278
-2.54261e-07
0.000142792
2.39971e-09
0.000142746
2.94321e-07
0.000142638
6.27574e-07
0.00014246
1.00971e-06
0.000142205
1.45004e-06
0.000141866
1.96011e-06
0.000141436
2.55423e-06
0.000140911
3.25012e-06
0.000140287
4.06955e-06
0.000139569
5.03891e-06
0.000138771
6.18924e-06
0.000137923
7.55514e-06
0.000137087
9.17105e-06
0.000136362
1.10623e-05
0.000135899
1.32261e-05
0.000135899
1.55975e-05
0.000136555
1.79929e-05
2.00459e-05
0.000137858
0.000130634
-3.20422e-07
0.000130749
-6.03983e-07
0.00013091
-8.39923e-07
0.00013111
-1.03755e-06
0.000131342
-1.204e-06
0.000131603
-1.34415e-06
0.000131886
-1.46119e-06
0.000132187
-1.55741e-06
0.000132504
-1.63453e-06
0.000132833
-1.69403e-06
0.00013317
-1.73743e-06
0.000133513
-1.76655e-06
0.00013386
-1.78358e-06
0.000134207
-1.79109e-06
0.000134555
-1.79194e-06
0.000134902
-1.78909e-06
0.000135248
-1.78537e-06
0.000135593
-1.78331e-06
0.000135938
-1.78495e-06
0.000136284
-1.79175e-06
0.000136632
-1.8046e-06
0.000136983
-1.82378e-06
0.000137338
-1.84911e-06
0.000137698
-1.88001e-06
0.000138065
-1.91565e-06
0.000138439
-1.95502e-06
0.00013882
-1.99707e-06
0.000139209
-2.04076e-06
0.000139606
-2.08511e-06
0.00014001
-2.12921e-06
0.000140423
-2.17231e-06
0.000140842
-2.2137e-06
0.000141269
-2.25283e-06
0.000141702
-2.28921e-06
0.00014214
-2.3224e-06
0.000142584
-2.35206e-06
0.000143032
-2.37786e-06
0.000143483
-2.39952e-06
0.000143937
-2.41674e-06
0.000144393
-2.42926e-06
0.000144849
-2.43681e-06
0.000145305
-2.43912e-06
0.00014576
-2.43588e-06
0.000146212
-2.42679e-06
0.00014666
-2.41151e-06
0.000147104
-2.38967e-06
0.000147542
-2.36088e-06
0.000147971
-2.32469e-06
0.000148392
-2.2806e-06
0.000148802
-2.22806e-06
0.0001492
-2.16646e-06
0.000149584
-2.0951e-06
0.000149952
-2.01317e-06
0.000150303
-1.91978e-06
0.000150633
-1.81389e-06
0.000150941
-1.69431e-06
0.000151224
-1.55964e-06
0.00015148
-1.4083e-06
0.000151706
-1.2384e-06
0.000151899
-1.04776e-06
0.000152055
-8.33796e-07
0.00015217
-5.93456e-07
0.000152242
-3.23132e-07
0.000152266
-1.85823e-08
0.000152238
3.25355e-07
0.000152153
7.14657e-07
0.000152009
1.15668e-06
0.000151802
1.66016e-06
0.000151529
2.2355e-06
0.000151191
2.89497e-06
0.000150791
3.65292e-06
0.000150337
4.52577e-06
0.000149847
5.53166e-06
0.000149349
6.68945e-06
0.000148891
8.01654e-06
0.00014854
9.52457e-06
0.000148393
1.12118e-05
0.00014857
1.30506e-05
0.000149202
1.49687e-05
0.000150369
1.68275e-05
1.84099e-05
0.000152008
0.000139783
-3.81473e-07
0.000139903
-7.24176e-07
0.000140072
-1.00893e-06
0.000140283
-1.24784e-06
0.000140529
-1.44911e-06
0.000140804
-1.61852e-06
0.000141103
-1.75995e-06
0.000141423
-1.87619e-06
0.000141759
-1.96932e-06
0.000142107
-2.04114e-06
0.000142464
-2.09349e-06
0.000142828
-2.12856e-06
0.000143195
-2.14895e-06
0.000143563
-2.15778e-06
0.000143931
-2.15845e-06
0.000144298
-2.15452e-06
0.000144664
-2.1494e-06
0.000145029
-2.14613e-06
0.000145394
-2.14718e-06
0.000145758
-2.15434e-06
0.000146125
-2.16868e-06
0.000146494
-2.19057e-06
0.000146867
-2.21981e-06
0.000147245
-2.25572e-06
0.00014763
-2.29733e-06
0.000148021
-2.34342e-06
0.000148419
-2.39276e-06
0.000148825
-2.44407e-06
0.000149239
-2.49618e-06
0.000149661
-2.54802e-06
0.00015009
-2.59863e-06
0.000150527
-2.64721e-06
0.00015097
-2.69306e-06
0.00015142
-2.73558e-06
0.000151875
-2.77428e-06
0.000152335
-2.8087e-06
0.000152799
-2.83847e-06
0.000153266
-2.86323e-06
0.000153735
-2.88265e-06
0.000154205
-2.89641e-06
0.000154676
-2.90419e-06
0.000155146
-2.90566e-06
0.000155614
-2.90047e-06
0.000156079
-2.88827e-06
0.000156539
-2.86866e-06
0.000156994
-2.84121e-06
0.000157442
-2.80546e-06
0.000157882
-2.7609e-06
0.000158311
-2.70698e-06
0.00015873
-2.64305e-06
0.000159135
-2.56842e-06
0.000159526
-2.48231e-06
0.0001599
-2.38382e-06
0.000160255
-2.27195e-06
0.00016059
-2.14555e-06
0.000160902
-2.00333e-06
0.00016119
-1.84378e-06
0.00016145
-1.66519e-06
0.00016168
-1.46556e-06
0.000161878
-1.24262e-06
0.000162041
-9.93702e-07
0.000162167
-7.15716e-07
0.000162252
-4.05078e-07
0.000162294
-5.76616e-08
0.000162291
3.31351e-07
0.000162241
7.67416e-07
0.000162144
1.257e-06
0.000161999
1.80747e-06
0.00016181
2.42716e-06
0.000161583
3.12531e-06
0.000161327
3.91193e-06
0.000161058
4.79736e-06
0.000160801
5.79149e-06
0.000160591
6.90248e-06
0.000160475
8.13451e-06
0.000160518
9.48451e-06
0.000160796
1.09371e-05
0.000161391
1.2458e-05
0.000162376
1.39863e-05
0.000163777
1.54287e-05
1.66625e-05
0.000165527
0.000149572
-4.44882e-07
0.000149698
-8.49919e-07
0.000149875
-1.18638e-06
0.000150097
-1.46913e-06
0.000150356
-1.70747e-06
0.000150646
-1.90805e-06
0.000150963
-2.07547e-06
0.0001513
-2.21303e-06
0.000151655
-2.32323e-06
0.000152024
-2.40818e-06
0.000152402
-2.47007e-06
0.000152786
-2.51146e-06
0.000153174
-2.53542e-06
0.000153564
-2.54557e-06
0.000153953
-2.54594e-06
0.000154341
-2.54068e-06
0.000154727
-2.5338e-06
0.000155112
-2.5289e-06
0.000155496
-2.5289e-06
0.00015588
-2.53593e-06
0.000156265
-2.55127e-06
0.000156653
-2.57541e-06
0.000157044
-2.60813e-06
0.000157439
-2.64868e-06
0.000157841
-2.69591e-06
0.000158249
-2.74843e-06
0.000158664
-2.80477e-06
0.000159086
-2.86346e-06
0.000159516
-2.92311e-06
0.000159954
-2.98245e-06
0.000160399
-3.04037e-06
0.000160851
-3.0959e-06
0.000161309
-3.14821e-06
0.000161774
-3.1966e-06
0.000162243
-3.24047e-06
0.000162717
-3.2793e-06
0.000163195
-3.31264e-06
0.000163675
-3.34006e-06
0.000164157
-3.36119e-06
0.00016464
-3.37565e-06
0.000165123
-3.38307e-06
0.000165604
-3.38307e-06
0.000166082
-3.37526e-06
0.000166557
-3.35923e-06
0.000167026
-3.33453e-06
0.000167489
-3.3007e-06
0.000167944
-3.25721e-06
0.000168391
-3.20349e-06
0.000168826
-3.13893e-06
0.00016925
-3.06284e-06
0.000169659
-2.97446e-06
0.000170053
-2.87293e-06
0.00017043
-2.75731e-06
0.000170789
-2.62653e-06
0.000171126
-2.47938e-06
0.000171441
-2.31451e-06
0.000171731
-2.13038e-06
0.000171994
-1.92524e-06
0.000172229
-1.69712e-06
0.000172434
-1.44375e-06
0.000172606
-1.16257e-06
0.000172744
-8.50679e-07
0.000172847
-5.0476e-07
0.000172914
-1.21117e-07
0.000172944
3.04361e-07
0.000172938
7.76187e-07
0.000172899
1.29945e-06
0.00017283
1.87965e-06
0.000172738
2.52259e-06
0.000172632
3.23414e-06
0.000172527
4.01994e-06
0.000172443
4.88476e-06
0.000172405
5.83179e-06
0.000172449
6.86136e-06
0.000172617
7.96944e-06
0.000172959
9.14547e-06
0.000173529
1.03699e-05
0.000174379
1.16114e-05
0.000175543
1.28247e-05
0.000177024
1.39507e-05
1.49221e-05
0.000178767
0.000160046
-5.10738e-07
0.000160178
-9.81216e-07
0.000160364
-1.37229e-06
0.000160597
-1.70148e-06
0.000160869
-1.97917e-06
0.000161175
-2.21288e-06
0.000161508
-2.40793e-06
0.000161864
-2.56818e-06
0.000162239
-2.69654e-06
0.000162627
-2.79548e-06
0.000163026
-2.86755e-06
0.000163432
-2.91568e-06
0.000163842
-2.94343e-06
0.000164253
-2.95496e-06
0.000164664
-2.95489e-06
0.000165073
-2.94802e-06
0.000165481
-2.939e-06
0.000165886
-2.93197e-06
0.00016629
-2.93035e-06
0.000166693
-2.93665e-06
0.000167097
-2.95238e-06
0.000167502
-2.97815e-06
0.000167911
-3.01377e-06
0.000168323
-3.05839e-06
0.000168741
-3.11072e-06
0.000169165
-3.16919e-06
0.000169596
-3.2321e-06
0.000170033
-3.29776e-06
0.000170478
-3.36456e-06
0.00017093
-3.43103e-06
0.000171389
-3.49587e-06
0.000171854
-3.55796e-06
0.000172326
-3.61633e-06
0.000172803
-3.67016e-06
0.000173285
-3.71875e-06
0.000173771
-3.76149e-06
0.00017426
-3.79786e-06
0.000174751
-3.82738e-06
0.000175243
-3.8496e-06
0.000175736
-3.86411e-06
0.000176227
-3.87047e-06
0.000176716
-3.86827e-06
0.000177201
-3.85708e-06
0.000177683
-3.83643e-06
0.000178158
-3.80585e-06
0.000178626
-3.76482e-06
0.000179085
-3.71278e-06
0.000179535
-3.64912e-06
0.000179973
-3.57318e-06
0.000180398
-3.48423e-06
0.000180809
-3.38149e-06
0.000181204
-3.26406e-06
0.000181581
-3.13098e-06
0.00018194
-2.98115e-06
0.000182277
-2.81338e-06
0.000182593
-2.62632e-06
0.000182885
-2.41848e-06
0.000183151
-2.18817e-06
0.000183391
-1.93355e-06
0.000183604
-1.65254e-06
0.000183788
-1.34283e-06
0.000183942
-1.00188e-06
0.000184068
-6.26906e-07
0.000184165
-2.1488e-07
0.000184236
2.37368e-07
0.000184282
7.33112e-07
0.000184309
1.27582e-06
0.000184324
1.86895e-06
0.000184334
2.51576e-06
0.000184352
3.21899e-06
0.000184395
3.98052e-06
0.000184482
4.80088e-06
0.000184638
5.67855e-06
0.000184894
6.60919e-06
0.000185282
7.58473e-06
0.000185838
8.59232e-06
0.000186597
9.61337e-06
0.000187589
1.06229e-05
0.000188827
1.15896e-05
0.000190303
1.24775e-05
1.32499e-05
0.000191978
0.000171254
-5.79103e-07
0.000171391
-1.11805e-06
0.000171586
-1.56666e-06
0.00017183
-1.94485e-06
0.000172115
-2.2642e-06
0.000172436
-2.53303e-06
0.000172787
-2.7574e-06
0.000173161
-2.94175e-06
0.000173556
-3.08941e-06
0.000173965
-3.20325e-06
0.000174385
-3.28616e-06
0.000174812
-3.34151e-06
0.000175244
-3.37331e-06
0.000175677
-3.38627e-06
0.00017611
-3.38564e-06
0.000176541
-3.37688e-06
0.00017697
-3.36525e-06
0.000177396
-3.35554e-06
0.00017782
-3.35165e-06
0.000178242
-3.35648e-06
0.000178665
-3.37184e-06
0.000179088
-3.39848e-06
0.000179513
-3.43623e-06
0.000179942
-3.48419e-06
0.000180376
-3.54092e-06
0.000180814
-3.60466e-06
0.000181259
-3.67351e-06
0.000181711
-3.74554e-06
0.000182168
-3.81891e-06
0.000182633
-3.89196e-06
0.000183104
-3.96318e-06
0.000183581
-4.03128e-06
0.000184064
-4.09515e-06
0.000184551
-4.15384e-06
0.000185043
-4.20654e-06
0.000185538
-4.25257e-06
0.000186035
-4.29131e-06
0.000186534
-4.32222e-06
0.000187034
-4.3448e-06
0.000187532
-4.35858e-06
0.000188029
-4.3631e-06
0.000188523
-4.35789e-06
0.000189012
-4.34247e-06
0.000189496
-4.31637e-06
0.000189973
-4.27907e-06
0.000190443
-4.23002e-06
0.000190903
-4.16864e-06
0.000191352
-4.09429e-06
0.000191789
-4.00631e-06
0.000192213
-3.90396e-06
0.000192622
-3.78642e-06
0.000193015
-3.65284e-06
0.00019339
-3.50226e-06
0.000193747
-3.33362e-06
0.000194083
-3.1458e-06
0.000194399
-2.93752e-06
0.000194692
-2.70742e-06
0.000194961
-2.45402e-06
0.000195207
-2.17566e-06
0.000195429
-1.8706e-06
0.000195627
-1.53695e-06
0.000195802
-1.17267e-06
0.000195954
-7.75669e-07
0.000196087
-3.43761e-07
0.000196203
1.25186e-07
0.000196307
6.3312e-07
0.000196404
1.18185e-06
0.000196504
1.77292e-06
0.000196616
2.40735e-06
0.000196753
3.08536e-06
0.000196931
3.80611e-06
0.000197168
4.56725e-06
0.000197486
5.36461e-06
0.000197906
6.1917e-06
0.000198455
7.03933e-06
0.000199156
7.89526e-06
0.000200028
8.74406e-06
0.000201087
9.56733e-06
0.000202336
1.03443e-05
0.000203763
1.10535e-05
1.16752e-05
0.000205341
0.000183247
-6.50014e-07
0.000183389
-1.26036e-06
0.000183593
-1.76939e-06
0.000183847
-2.19915e-06
0.000184146
-2.56244e-06
0.000184483
-2.86839e-06
0.00018485
-3.12379e-06
0.000185243
-3.33366e-06
0.000185657
-3.5018e-06
0.000186087
-3.63147e-06
0.000186528
-3.72595e-06
0.000186977
-3.78901e-06
0.000187431
-3.82514e-06
0.000187886
-3.83962e-06
0.000188341
-3.83831e-06
0.000188794
-3.82733e-06
0.000189244
-3.81264e-06
0.000189691
-3.7996e-06
0.000190135
-3.79268e-06
0.000190576
-3.79521e-06
0.000191017
-3.8093e-06
0.000191457
-3.83586e-06
0.000191899
-3.8748e-06
0.000192343
-3.92516e-06
0.000192791
-3.98539e-06
0.000193244
-4.05354e-06
0.000193701
-4.12749e-06
0.000194165
-4.20509e-06
0.000194634
-4.28428e-06
0.000195109
-4.36315e-06
0.00019559
-4.44002e-06
0.000196076
-4.51341e-06
0.000196567
-4.58205e-06
0.000197062
-4.64486e-06
0.00019756
-4.70093e-06
0.000198062
-4.74946e-06
0.000198564
-4.78977e-06
0.000199068
-4.82125e-06
0.00019957
-4.84334e-06
0.000200072
-4.85554e-06
0.00020057
-4.85732e-06
0.000201065
-4.84821e-06
0.000201555
-4.8277e-06
0.000202038
-4.79527e-06
0.000202514
-4.75041e-06
0.000202981
-4.69254e-06
0.000203438
-4.62109e-06
0.000203883
-4.53542e-06
0.000204316
-4.43486e-06
0.000204735
-4.31871e-06
0.00020514
-4.1862e-06
0.000205528
-4.03649e-06
0.000205898
-3.86871e-06
0.000206251
-3.6819e-06
0.000206585
-3.47504e-06
0.000206898
-3.24705e-06
0.000207192
-2.99675e-06
0.000207465
-2.72292e-06
0.000207718
-2.42425e-06
0.000207951
-2.0994e-06
0.000208165
-1.747e-06
0.000208362
-1.36564e-06
0.000208544
-9.53975e-07
0.000208716
-5.10736e-07
0.00020888
-3.4824e-08
0.000209042
4.74585e-07
0.00020921
1.01764e-06
0.000209393
1.59437e-06
0.0002096
2.20409e-06
0.000209844
2.84525e-06
0.000210138
3.51526e-06
0.000210499
4.21028e-06
0.000210942
4.92499e-06
0.000211485
5.6525e-06
0.000212144
6.38416e-06
0.000212933
7.10966e-06
0.000213863
7.81717e-06
0.000214941
8.49375e-06
0.000216162
9.12605e-06
0.000217518
9.70137e-06
1.02092e-05
0.000218987
0.000196079
-7.23467e-07
0.000196227
-1.40804e-06
0.000196439
-1.9803e-06
0.000196704
-2.46415e-06
0.000197016
-2.87363e-06
0.000197367
-3.21867e-06
0.000197752
-3.50679e-06
0.000198163
-3.74361e-06
0.000198596
-3.93342e-06
0.000199046
-4.07988e-06
0.000199508
-4.18666e-06
0.000199979
-4.25795e-06
0.000200455
-4.29872e-06
0.000200932
-4.31481e-06
0.000201409
-4.31271e-06
0.000201883
-4.29919e-06
0.000202354
-4.2809e-06
0.000202821
-4.26384e-06
0.000203285
-4.25305e-06
0.000203745
-4.25231e-06
0.000204203
-4.26407e-06
0.00020466
-4.28946e-06
0.000205117
-4.32846e-06
0.000205576
-4.3801e-06
0.000206037
-4.44271e-06
0.000206501
-4.51419e-06
0.00020697
-4.59221e-06
0.000207443
-4.67438e-06
0.000207921
-4.7584e-06
0.000208404
-4.84216e-06
0.000208892
-4.92375e-06
0.000209385
-5.00152e-06
0.000209881
-5.07403e-06
0.00021038
-5.14006e-06
0.000210883
-5.19857e-06
0.000211386
-5.24869e-06
0.000211891
-5.28964e-06
0.000212395
-5.32074e-06
0.000212898
-5.3414e-06
0.000213398
-5.35105e-06
0.000213894
-5.34916e-06
0.000214386
-5.33521e-06
0.000214872
-5.30869e-06
0.00021535
-5.26907e-06
0.00021582
-5.21583e-06
0.000216281
-5.14841e-06
0.000216731
-5.06625e-06
0.000217169
-4.96875e-06
0.000217594
-4.85527e-06
0.000218005
-4.72517e-06
0.000218402
-4.57774e-06
0.000218782
-4.41225e-06
0.000219146
-4.22795e-06
0.000219493
-4.02401e-06
0.000219822
-3.79962e-06
0.000220133
-3.55389e-06
0.000220427
-3.28595e-06
0.000220704
-2.99488e-06
0.000220964
-2.6798e-06
0.000221209
-2.33984e-06
0.00022144
-1.97417e-06
0.000221661
-1.58207e-06
0.000221874
-1.16293e-06
0.000222084
-7.16349e-07
0.000222296
-2.42161e-07
0.000222515
2.59428e-07
0.00022275
7.87509e-07
0.000223008
1.34084e-06
0.000223298
1.91758e-06
0.000223632
2.51514e-06
0.000224022
3.13009e-06
0.000224478
3.75805e-06
0.000225013
4.39364e-06
0.000225639
5.0305e-06
0.000226366
5.66132e-06
0.000227201
6.27802e-06
0.00022815
6.87195e-06
0.000229214
7.43434e-06
0.000230387
7.95674e-06
0.00023166
8.43174e-06
8.85386e-06
0.000233019
0.000209811
-7.99411e-07
0.000209964
-1.5609e-06
0.000210183
-2.1991e-06
0.000210459
-2.73947e-06
0.000210783
-3.19731e-06
0.000211149
-3.58337e-06
0.000211549
-3.90587e-06
0.000211978
-4.17104e-06
0.00021243
-4.38368e-06
0.0002129
-4.54788e-06
0.000213383
-4.66769e-06
0.000213874
-4.74773e-06
0.000214371
-4.79345e-06
0.00021487
-4.81124e-06
0.000215368
-4.80821e-06
0.000215863
-4.7918e-06
0.000216355
-4.76935e-06
0.000216841
-4.74751e-06
0.000217323
-4.73191e-06
0.000217801
-4.72683e-06
0.000218276
-4.73507e-06
0.000218748
-4.75803e-06
0.000219219
-4.79578e-06
0.00021969
-4.84737e-06
0.000220162
-4.91106e-06
0.000220637
-4.98458e-06
0.000221114
-5.0654e-06
0.000221595
-5.15091e-06
0.000222079
-5.23859e-06
0.000222568
-5.32609e-06
0.00022306
-5.41129e-06
0.000223555
-5.49233e-06
0.000224053
-5.56763e-06
0.000224554
-5.6358e-06
0.000225056
-5.6957e-06
0.000225558
-5.74634e-06
0.00022606
-5.78687e-06
0.000226561
-5.81655e-06
0.000227059
-5.83473e-06
0.000227554
-5.84081e-06
0.000228044
-5.83425e-06
0.000228529
-5.8145e-06
0.000229006
-5.78105e-06
0.000229475
-5.7334e-06
0.000229936
-5.67104e-06
0.000230386
-5.59343e-06
0.000230825
-5.50007e-06
0.000231252
-5.39039e-06
0.000231665
-5.26386e-06
0.000232065
-5.1199e-06
0.00023245
-4.95793e-06
0.00023282
-4.77735e-06
0.000233175
-4.57755e-06
0.000233514
-4.35794e-06
0.000233837
-4.1179e-06
0.000234145
-3.85684e-06
0.000234438
-3.5742e-06
0.000234718
-3.26945e-06
0.000234985
-2.94212e-06
0.000235242
-2.59184e-06
0.000235491
-2.21835e-06
0.000235735
-1.82154e-06
0.000235978
-1.40151e-06
0.000236225
-9.58579e-07
0.000236481
-4.9337e-07
0.000236752
-6.77044e-09
0.000237044
4.99625e-07
0.000237366
1.02364e-06
0.000237725
1.56284e-06
0.00023813
2.11418e-06
0.000238591
2.67402e-06
0.000239115
3.2381e-06
0.000239711
3.80154e-06
0.000240387
4.35899e-06
0.000241148
4.90462e-06
0.000241998
5.43241e-06
0.000242938
5.93627e-06
0.000243966
6.41037e-06
0.000245077
6.84945e-06
0.000246263
7.24923e-06
7.60701e-06
0.000247514
0.000224503
-8.77728e-07
0.000224661
-1.71865e-06
0.000224888
-2.42534e-06
0.000225174
-3.02454e-06
0.00022551
-3.53281e-06
0.000225889
-3.96171e-06
0.000226305
-4.32016e-06
0.00022675
-4.61502e-06
0.00022722
-4.8516e-06
0.000227708
-5.03442e-06
0.000228211
-5.16796e-06
0.000228722
-5.25724e-06
0.000229239
-5.3082e-06
0.000229758
-5.32775e-06
0.000230277
-5.32363e-06
0.000230792
-5.30395e-06
0.000231302
-5.27672e-06
0.000231807
-5.24928e-06
0.000232306
-5.22785e-06
0.0002328
-5.21723e-06
0.00023329
-5.22065e-06
0.000233775
-5.23975e-06
0.000234258
-5.27478e-06
0.00023474
-5.32483e-06
0.000235221
-5.38808e-06
0.000235703
-5.46214e-06
0.000236186
-5.54429e-06
0.000236671
-5.63172e-06
0.000237159
-5.72166e-06
0.000237649
-5.81154e-06
0.000238142
-5.89903e-06
0.000238636
-5.98207e-06
0.000239133
-6.05888e-06
0.00023963
-6.12797e-06
0.000240127
-6.18803e-06
0.000240624
-6.23799e-06
0.000241119
-6.27692e-06
0.000241612
-6.30403e-06
0.000242101
-6.31861e-06
0.000242586
-6.32006e-06
0.000243065
-6.30779e-06
0.000243537
-6.28129e-06
0.000244002
-6.24005e-06
0.000244457
-6.18359e-06
0.000244903
-6.11145e-06
0.000245338
-6.02316e-06
0.000245762
-5.91825e-06
0.000246173
-5.79628e-06
0.000246572
-5.65679e-06
0.000246956
-5.49934e-06
0.000247327
-5.32349e-06
0.000247684
-5.12881e-06
0.000248027
-4.91491e-06
0.000248356
-4.6814e-06
0.000248671
-4.42795e-06
0.000248974
-4.15426e-06
0.000249265
-3.86011e-06
0.000249546
-3.54535e-06
0.000249819
-3.20995e-06
0.000250087
-2.854e-06
0.000250351
-2.47775e-06
0.000250616
-2.08162e-06
0.000250886
-1.66628e-06
0.000251165
-1.23263e-06
0.000251459
-7.8185e-07
0.000251772
-3.15381e-07
0.000252112
1.64966e-07
0.000252484
6.56651e-07
0.000252894
1.15685e-06
0.000253351
1.66249e-06
0.000253859
2.17012e-06
0.000254426
2.67596e-06
0.000255057
3.1759e-06
0.000255754
3.66565e-06
0.000256523
4.1408e-06
0.000257363
4.59699e-06
0.000258273
5.03004e-06
0.000259252
5.43614e-06
0.000260294
5.81205e-06
0.000261392
6.15537e-06
6.46493e-06
0.000262538
0.000240224
-9.58239e-07
0.000240387
-1.88089e-06
0.00024062
-2.65838e-06
0.000240915
-3.31855e-06
0.000241262
-3.87915e-06
0.000241654
-4.35257e-06
0.000242084
-4.74842e-06
0.000242545
-5.0742e-06
0.000243031
-5.33573e-06
0.000243536
-5.53799e-06
0.000244056
-5.68587e-06
0.000244586
-5.78481e-06
0.000245122
-5.84122e-06
0.000245659
-5.86254e-06
0.000246196
-5.85711e-06
0.000246728
-5.83371e-06
0.000247256
-5.80103e-06
0.000247777
-5.76708e-06
0.000248292
-5.73872e-06
0.0002488
-5.7213e-06
0.000249301
-5.71845e-06
0.000249798
-5.73215e-06
0.00025029
-5.76284e-06
0.000250779
-5.80966e-06
0.000251266
-5.87079e-06
0.000251753
-5.9437e-06
0.000252239
-6.02553e-06
0.000252725
-6.11323e-06
0.000253212
-6.20384e-06
0.0002537
-6.29454e-06
0.000254189
-6.3828e-06
0.000254679
-6.46635e-06
0.000255168
-6.54325e-06
0.000255658
-6.61185e-06
0.000256146
-6.67072e-06
0.000256632
-6.71868e-06
0.000257115
-6.75474e-06
0.000257595
-6.77804e-06
0.00025807
-6.78786e-06
0.000258539
-6.78355e-06
0.000259002
-6.76456e-06
0.000259457
-6.73038e-06
0.000259903
-6.68054e-06
0.00026034
-6.6146e-06
0.000260766
-6.53215e-06
0.000261182
-6.43282e-06
0.000261586
-6.31624e-06
0.000261977
-6.18206e-06
0.000262356