/*--------------------------------*- C++ -*----------------------------------*\
| =========                 |                                                 |
| \\      /  F ield         | OpenFOAM: The Open Source CFD Toolbox           |
|  \\    /   O peration     | Version:  2106                                  |
|   \\  /    A nd           | Website:  www.openfoam.com                      |
|    \\/     M anipulation  |                                                 |
\*---------------------------------------------------------------------------*/
FoamFile
{
    version     2.0;
    format      ascii;
    arch        "LSB;label=32;scalar=64";
    class       volScalarField;
    location    "2";
    object      T;
}
// * * * * * * * * * * * * * * * * * * * * * * * * * * * * * * * * * * * * * //

dimensions      [0 0 0 1 0 0 0];

internalField   nonuniform List<scalar> 
12013
(
300.001
300.004
300.007
300.01
300.013
300.016
300.019
300.023
300.027
300.032
300.036
300.041
300.047
300.053
300.059
300.066
300.073
300.081
300.089
300.097
300.107
300.117
300.127
300.138
300.15
300.162
300.175
300.189
300.203
300.218
300.234
300.251
300.268
300.286
300.305
300.325
300.346
300.367
300.39
300.413
300.437
300.462
300.488
300.515
300.543
300.571
300.601
300.632
300.664
300.697
300.731
300.766
300.802
300.839
300.877
300.917
300.958
301
301.043
301.088
301.134
301.182
301.231
301.282
301.334
301.388
301.444
301.503
301.563
301.625
301.691
301.758
301.83
301.904
301.983
302.067
302.157
302.254
302.361
302.482
302.627
300.001
300.004
300.007
300.01
300.013
300.016
300.019
300.023
300.027
300.032
300.036
300.041
300.047
300.053
300.059
300.066
300.073
300.081
300.089
300.097
300.107
300.117
300.127
300.138
300.15
300.162
300.175
300.189
300.203
300.218
300.234
300.251
300.268
300.286
300.305
300.325
300.346
300.367
300.39
300.413
300.437
300.462
300.488
300.515
300.543
300.571
300.601
300.632
300.664
300.697
300.73
300.765
300.802
300.839
300.877
300.917
300.958
301
301.043
301.088
301.134
301.181
301.23
301.281
301.333
301.388
301.443
301.501
301.561
301.624
301.689
301.756
301.827
301.901
301.979
302.062
302.15
302.245
302.348
302.461
302.585
300.001
300.004
300.007
300.009
300.013
300.016
300.019
300.023
300.027
300.032
300.036
300.041
300.047
300.053
300.059
300.066
300.073
300.081
300.089
300.097
300.107
300.117
300.127
300.138
300.15
300.162
300.175
300.189
300.203
300.218
300.234
300.251
300.268
300.286
300.305
300.325
300.346
300.367
300.389
300.413
300.437
300.462
300.488
300.514
300.542
300.571
300.601
300.632
300.663
300.696
300.73
300.765
300.801
300.838
300.876
300.916
300.957
300.999
301.042
301.087
301.133
301.18
301.229
301.28
301.332
301.386
301.441
301.499
301.559
301.62
301.685
301.752
301.822
301.895
301.971
302.052
302.137
302.228
302.324
302.426
302.531
300.001
300.004
300.007
300.009
300.013
300.016
300.019
300.023
300.027
300.032
300.036
300.041
300.047
300.053
300.059
300.066
300.073
300.08
300.089
300.097
300.107
300.116
300.127
300.138
300.15
300.162
300.175
300.189
300.203
300.218
300.234
300.251
300.268
300.286
300.305
300.325
300.345
300.367
300.389
300.412
300.436
300.461
300.487
300.514
300.542
300.571
300.6
300.631
300.663
300.695
300.729
300.764
300.8
300.837
300.875
300.915
300.955
300.997
301.041
301.085
301.131
301.178
301.227
301.277
301.329
301.382
301.438
301.495
301.554
301.615
301.679
301.744
301.813
301.884
301.959
302.037
302.118
302.203
302.291
302.382
302.474
300.001
300.004
300.007
300.009
300.013
300.016
300.019
300.023
300.027
300.032
300.036
300.041
300.047
300.053
300.059
300.066
300.073
300.08
300.089
300.097
300.107
300.116
300.127
300.138
300.15
300.162
300.175
300.188
300.203
300.218
300.234
300.25
300.268
300.286
300.305
300.325
300.345
300.367
300.389
300.412
300.436
300.461
300.487
300.513
300.541
300.57
300.6
300.63
300.662
300.694
300.728
300.763
300.799
300.836
300.874
300.913
300.954
300.995
301.038
301.082
301.128
301.175
301.223
301.273
301.325
301.378
301.432
301.489
301.547
301.607
301.669
301.734
301.801
301.87
301.941
302.016
302.092
302.171
302.252
302.334
302.415
300.001
300.004
300.007
300.009
300.013
300.016
300.019
300.023
300.027
300.032
300.036
300.041
300.047
300.053
300.059
300.066
300.073
300.08
300.089
300.097
300.106
300.116
300.127
300.138
300.149
300.162
300.175
300.188
300.203
300.218
300.234
300.25
300.267
300.286
300.304
300.324
300.345
300.366
300.388
300.411
300.435
300.46
300.486
300.513
300.54
300.569
300.598
300.629
300.661
300.693
300.727
300.761
300.797
300.834
300.872
300.911
300.951
300.992
301.035
301.079
301.124
301.171
301.219
301.268
301.319
301.371
301.425
301.48
301.538
301.597
301.657
301.72
301.785
301.851
301.919
301.99
302.062
302.135
302.209
302.282
302.355
300.001
300.004
300.007
300.009
300.013
300.016
300.019
300.023
300.027
300.032
300.036
300.041
300.047
300.053
300.059
300.065
300.073
300.08
300.088
300.097
300.106
300.116
300.127
300.138
300.149
300.161
300.174
300.188
300.202
300.217
300.233
300.25
300.267
300.285
300.304
300.324
300.344
300.365
300.388
300.411
300.434
300.459
300.485
300.512
300.539
300.568
300.597
300.627
300.659
300.691
300.725
300.759
300.795
300.831
300.869
300.908
300.948
300.989
301.031
301.075
301.119
301.165
301.213
301.261
301.311
301.363
301.416
301.47
301.526
301.583
301.642
301.703
301.765
301.828
301.893
301.959
302.026
302.094
302.161
302.229
302.294
300.001
300.004
300.007
300.009
300.013
300.016
300.019
300.023
300.027
300.032
300.036
300.041
300.047
300.052
300.059
300.065
300.073
300.08
300.088
300.097
300.106
300.116
300.126
300.137
300.149
300.161
300.174
300.188
300.202
300.217
300.233
300.249
300.266
300.284
300.303
300.323
300.343
300.365
300.387
300.41
300.433
300.458
300.484
300.51
300.538
300.566
300.595
300.626
300.657
300.689
300.722
300.756
300.792
300.828
300.865
300.904
300.943
300.984
301.026
301.069
301.113
301.158
301.205
301.253
301.302
301.352
301.404
301.457
301.511
301.567
301.623
301.682
301.741
301.801
301.862
301.924
301.987
302.049
302.112
302.173
302.233
300.001
300.004
300.007
300.009
300.013
300.016
300.019
300.023
300.027
300.031
300.036
300.041
300.047
300.052
300.059
300.065
300.072
300.08
300.088
300.097
300.106
300.116
300.126
300.137
300.149
300.161
300.174
300.187
300.201
300.216
300.232
300.249
300.266
300.284
300.302
300.322
300.342
300.363
300.385
300.408
300.432
300.457
300.482
300.508
300.536
300.564
300.593
300.623
300.654
300.686
300.719
300.753
300.788
300.824
300.861
300.899
300.938
300.978
301.019
301.062
301.105
301.15
301.195
301.242
301.29
301.339
301.39
301.441
301.493
301.547
301.602
301.657
301.713
301.77
301.828
301.886
301.944
302.002
302.059
302.116
302.171
300.001
300.004
300.007
300.009
300.012
300.016
300.019
300.023
300.027
300.031
300.036
300.041
300.046
300.052
300.058
300.065
300.072
300.08
300.088
300.097
300.106
300.115
300.126
300.137
300.148
300.16
300.173
300.187
300.201
300.216
300.231
300.248
300.265
300.283
300.301
300.321
300.341
300.362
300.384
300.407
300.43
300.455
300.48
300.506
300.533
300.561
300.59
300.62
300.651
300.682
300.715
300.749
300.783
300.819
300.855
300.893
300.931
300.971
301.011
301.053
301.096
301.139
301.184
301.23
301.276
301.324
301.373
301.422
301.473
301.524
301.576
301.629
301.682
301.736
301.79
301.844
301.898
301.952
302.005
302.057
302.108
300.001
300.004
300.007
300.009
300.012
300.016
300.019
300.023
300.027
300.031
300.036
300.041
300.046
300.052
300.058
300.065
300.072
300.08
300.088
300.096
300.105
300.115
300.125
300.136
300.148
300.16
300.173
300.186
300.2
300.215
300.231
300.247
300.264
300.282
300.3
300.32
300.34
300.361
300.382
300.405
300.428
300.453
300.478
300.504
300.53
300.558
300.587
300.616
300.647
300.678
300.71
300.743
300.778
300.813
300.849
300.885
300.923
300.962
301.002
301.043
301.084
301.127
301.17
301.215
301.26
301.306
301.353
301.401
301.449
301.498
301.548
301.598
301.648
301.699
301.749
301.8
301.85
301.9
301.949
301.997
302.044
300.001
300.004
300.007
300.009
300.012
300.016
300.019
300.023
300.027
300.031
300.036
300.041
300.046
300.052
300.058
300.065
300.072
300.079
300.087
300.096
300.105
300.115
300.125
300.136
300.147
300.159
300.172
300.185
300.199
300.214
300.229
300.246
300.263
300.28
300.299
300.318
300.338
300.359
300.38
300.403
300.426
300.45
300.475
300.5
300.527
300.554
300.583
300.612
300.642
300.673
300.704
300.737
300.771
300.805
300.84
300.877
300.914
300.952
300.991
301.03
301.071
301.112
301.154
301.197
301.241
301.285
301.33
301.376
301.422
301.469
301.516
301.563
301.61
301.658
301.705
301.752
301.799
301.845
301.891
301.936
301.979
300.001
300.004
300.006
300.009
300.012
300.016
300.019
300.023
300.027
300.031
300.036
300.041
300.046
300.052
300.058
300.064
300.071
300.079
300.087
300.095
300.104
300.114
300.124
300.135
300.146
300.158
300.171
300.184
300.198
300.213
300.228
300.244
300.261
300.279
300.297
300.316
300.336
300.356
300.378
300.4
300.423
300.446
300.471
300.496
300.523
300.55
300.578
300.606
300.636
300.666
300.698
300.73
300.763
300.796
300.831
300.866
300.903
300.94
300.977
301.016
301.055
301.095
301.136
301.177
301.219
301.262
301.305
301.348
301.392
301.436
301.481
301.525
301.57
301.614
301.659
301.702
301.746
301.789
301.831
301.873
301.913
300.001
300.004
300.006
300.009
300.012
300.016
300.019
300.023
300.027
300.031
300.036
300.04
300.046
300.051
300.058
300.064
300.071
300.078
300.086
300.095
300.104
300.113
300.123
300.134
300.145
300.157
300.17
300.183
300.197
300.211
300.227
300.243
300.259
300.277
300.295
300.314
300.333
300.353
300.375
300.396
300.419
300.443
300.467
300.492
300.518
300.544
300.572
300.6
300.629
300.659
300.69
300.721
300.753
300.786
300.82
300.854
300.89
300.926
300.962
300.999
301.037
301.076
301.115
301.155
301.195
301.236
301.277
301.318
301.359
301.401
301.443
301.485
301.526
301.568
301.609
301.65
301.691
301.731
301.77
301.809
301.846
300.001
300.004
300.006
300.009
300.012
300.015
300.019
300.023
300.026
300.031
300.035
300.04
300.045
300.051
300.057
300.064
300.071
300.078
300.086
300.094
300.103
300.113
300.123
300.133
300.144
300.156
300.169
300.182
300.195
300.21
300.225
300.241
300.257
300.274
300.292
300.311
300.33
300.35
300.371
300.393
300.415
300.438
300.462
300.486
300.512
300.538
300.565
300.593
300.621
300.65
300.68
300.711
300.742
300.774
300.807
300.841
300.875
300.909
300.945
300.981
301.017
301.054
301.092
301.13
301.168
301.206
301.245
301.284
301.324
301.363
301.402
301.441
301.48
301.519
301.558
301.596
301.634
301.671
301.707
301.743
301.778
300.001
300.004
300.006
300.009
300.012
300.015
300.019
300.022
300.026
300.031
300.035
300.04
300.045
300.051
300.057
300.063
300.07
300.077
300.085
300.094
300.102
300.112
300.122
300.132
300.143
300.155
300.167
300.18
300.194
300.208
300.223
300.238
300.255
300.271
300.289
300.307
300.326
300.346
300.367
300.388
300.41
300.433
300.456
300.48
300.505
300.531
300.557
300.584
300.612
300.64
300.669
300.699
300.73
300.761
300.792
300.825
300.858
300.891
300.925
300.96
300.995
301.03
301.066
301.102
301.138
301.175
301.211
301.248
301.285
301.322
301.359
301.396
301.432
301.468
301.504
301.54
301.575
301.609
301.643
301.676
301.709
300.001
300.004
300.006
300.009
300.012
300.015
300.019
300.022
300.026
300.03
300.035
300.04
300.045
300.05
300.056
300.063
300.069
300.077
300.084
300.093
300.101
300.111
300.12
300.131
300.142
300.153
300.165
300.178
300.192
300.206
300.22
300.236
300.252
300.268
300.286
300.304
300.322
300.342
300.362
300.383
300.404
300.426
300.449
300.473
300.497
300.522
300.548
300.574
300.601
300.629
300.657
300.686
300.715
300.745
300.776
300.807
300.839
300.871
300.903
300.936
300.97
301.003
301.037
301.071
301.106
301.14
301.175
301.209
301.244
301.279
301.313
301.347
301.381
301.415
301.448
301.481
301.514
301.546
301.577
301.608
301.639
300.001
300.004
300.006
300.009
300.012
300.015
300.018
300.022
300.026
300.03
300.034
300.039
300.044
300.05
300.056
300.062
300.069
300.076
300.084
300.092
300.1
300.109
300.119
300.129
300.14
300.151
300.163
300.176
300.189
300.203
300.217
300.232
300.248
300.264
300.281
300.299
300.317
300.337
300.356
300.377
300.398
300.419
300.442
300.465
300.488
300.512
300.537
300.563
300.589
300.616
300.643
300.671
300.699
300.728
300.757
300.787
300.817
300.848
300.879
300.91
300.942
300.974
301.006
301.038
301.071
301.103
301.136
301.168
301.2
301.233
301.265
301.297
301.328
301.36
301.391
301.421
301.451
301.481
301.511
301.539
301.568
300.001
300.004
300.006
300.009
300.012
300.015
300.018
300.022
300.026
300.03
300.034
300.039
300.044
300.049
300.055
300.061
300.068
300.075
300.082
300.09
300.099
300.108
300.117
300.128
300.138
300.149
300.161
300.173
300.186
300.2
300.214
300.229
300.244
300.26
300.277
300.294
300.312
300.33
300.35
300.369
300.39
300.411
300.433
300.455
300.478
300.501
300.525
300.55
300.575
300.601
300.627
300.654
300.681
300.709
300.737
300.765
300.794
300.823
300.853
300.882
300.912
300.942
300.972
301.003
301.033
301.063
301.094
301.124
301.154
301.184
301.214
301.244
301.273
301.303
301.331
301.36
301.388
301.415
301.442
301.469
301.495
300.001
300.004
300.006
300.009
300.012
300.015
300.018
300.021
300.025
300.029
300.034
300.038
300.043
300.049
300.054
300.06
300.067
300.074
300.081
300.089
300.097
300.106
300.116
300.125
300.136
300.147
300.158
300.17
300.183
300.196
300.21
300.225
300.24
300.255
300.271
300.288
300.306
300.324
300.342
300.361
300.381
300.402
300.423
300.444
300.466
300.489
300.512
300.536
300.56
300.585
300.61
300.635
300.661
300.687
300.714
300.741
300.768
300.796
300.824
300.852
300.88
300.908
300.936
300.965
300.993
301.022
301.05
301.078
301.106
301.134
301.162
301.189
301.217
301.244
301.27
301.297
301.322
301.348
301.373
301.398
301.422
300.001
300.004
300.006
300.009
300.011
300.014
300.018
300.021
300.025
300.029
300.033
300.038
300.042
300.048
300.053
300.059
300.066
300.073
300.08
300.088
300.096
300.104
300.114
300.123
300.133
300.144
300.155
300.167
300.179
300.192
300.206
300.22
300.234
300.25
300.265
300.282
300.298
300.316
300.334
300.352
300.372
300.391
300.411
300.432
300.453
300.475
300.497
300.52
300.543
300.566
300.59
300.615
300.639
300.664
300.689
300.715
300.741
300.767
300.793
300.819
300.845
300.872
300.898
300.925
300.951
300.978
301.004
301.03
301.056
301.082
301.108
301.133
301.158
301.183
301.208
301.232
301.256
301.28
301.303
301.326
301.348
300.001
300.003
300.006
300.009
300.011
300.014
300.017
300.021
300.024
300.028
300.032
300.037
300.042
300.047
300.052
300.058
300.064
300.071
300.078
300.086
300.094
300.102
300.111
300.12
300.13
300.141
300.152
300.163
300.175
300.188
300.201
300.214
300.228
300.243
300.258
300.274
300.29
300.307
300.325
300.342
300.361
300.38
300.399
300.419
300.439
300.46
300.481
300.502
300.524
300.547
300.569
300.592
300.615
300.639
300.663
300.687
300.711
300.735
300.759
300.784
300.809
300.833
300.858
300.882
300.907
300.931
300.956
300.98
301.004
301.028
301.052
301.075
301.098
301.121
301.144
301.166
301.188
301.21
301.232
301.253
301.273
300.001
300.003
300.006
300.008
300.011
300.014
300.017
300.02
300.024
300.028
300.032
300.036
300.041
300.046
300.051
300.057
300.063
300.069
300.076
300.084
300.091
300.1
300.108
300.117
300.127
300.137
300.148
300.159
300.17
300.183
300.195
300.208
300.222
300.236
300.251
300.266
300.281
300.297
300.314
300.331
300.349
300.367
300.385
300.404
300.423
300.443
300.463
300.483
300.504
300.525
300.546
300.568
300.59
300.612
300.634
300.656
300.679
300.702
300.724
300.747
300.77
300.793
300.816
300.838
300.861
300.884
300.906
300.928
300.951
300.973
300.994
301.016
301.037
301.058
301.079
301.1
301.12
301.14
301.16
301.179
301.198
300.001
300.003
300.006
300.008
300.011
300.014
300.017
300.02
300.023
300.027
300.031
300.035
300.04
300.045
300.05
300.055
300.061
300.068
300.074
300.081
300.089
300.097
300.105
300.114
300.123
300.133
300.143
300.154
300.165
300.177
300.189
300.201
300.214
300.228
300.242
300.256
300.271
300.287
300.303
300.319
300.335
300.352
300.37
300.388
300.406
300.424
300.443
300.462
300.482
300.502
300.522
300.542
300.562
300.583
300.603
300.624
300.645
300.666
300.687
300.708
300.729
300.751
300.772
300.793
300.813
300.834
300.855
300.875
300.896
300.916
300.936
300.956
300.975
300.995
301.014
301.032
301.051
301.069
301.087
301.105
301.122
300.001
300.003
300.006
300.008
300.01
300.013
300.016
300.019
300.023
300.026
300.03
300.034
300.039
300.043
300.048
300.054
300.059
300.066
300.072
300.079
300.086
300.094
300.102
300.11
300.119
300.129
300.138
300.149
300.159
300.17
300.182
300.194
300.206
300.219
300.232
300.246
300.26
300.275
300.29
300.305
300.321
300.337
300.353
300.37
300.387
300.405
300.422
300.44
300.458
300.477
300.495
300.514
300.533
300.552
300.571
300.59
300.61
300.629
300.649
300.668
300.687
300.707
300.726
300.745
300.764
300.783
300.802
300.821
300.84
300.858
300.876
300.894
300.912
300.93
300.947
300.964
300.981
300.998
301.014
301.031
301.046
300.001
300.003
300.005
300.008
300.01
300.013
300.016
300.019
300.022
300.025
300.029
300.033
300.037
300.042
300.047
300.052
300.057
300.063
300.069
300.076
300.083
300.09
300.098
300.106
300.115
300.123
300.133
300.143
300.153
300.163
300.174
300.186
300.197
300.21
300.222
300.235
300.248
300.262
300.276
300.291
300.305
300.32
300.336
300.351
300.367
300.383
300.4
300.417
300.433
300.45
300.468
300.485
300.502
300.52
300.538
300.555
300.573
300.591
300.609
300.626
300.644
300.662
300.679
300.697
300.714
300.732
300.749
300.766
300.783
300.8
300.816
300.833
300.849
300.865
300.881
300.896
300.911
300.927
300.941
300.956
300.971
300.001
300.003
300.005
300.007
300.01
300.012
300.015
300.018
300.021
300.024
300.028
300.032
300.036
300.04
300.045
300.05
300.055
300.061
300.067
300.073
300.079
300.086
300.094
300.101
300.11
300.118
300.127
300.136
300.146
300.156
300.166
300.177
300.188
300.199
300.211
300.223
300.236
300.248
300.261
300.275
300.289
300.303
300.317
300.331
300.346
300.361
300.376
300.392
300.407
300.423
300.438
300.454
300.47
300.486
300.503
300.519
300.535
300.551
300.567
300.583
300.6
300.616
300.632
300.648
300.663
300.679
300.695
300.71
300.725
300.741
300.756
300.77
300.785
300.799
300.814
300.828
300.842
300.855
300.869
300.882
300.895
300.001
300.003
300.005
300.007
300.009
300.012
300.014
300.017
300.02
300.023
300.027
300.03
300.034
300.038
300.043
300.048
300.053
300.058
300.063
300.069
300.076
300.082
300.089
300.096
300.104
300.112
300.12
300.129
300.138
300.147
300.157
300.167
300.177
300.188
300.199
300.21
300.222
300.234
300.246
300.258
300.271
300.284
300.297
300.31
300.324
300.337
300.351
300.365
300.38
300.394
300.408
300.423
300.437
300.452
300.467
300.481
300.496
300.511
300.525
300.54
300.554
300.569
300.583
300.598
300.612
300.626
300.64
300.654
300.668
300.681
300.695
300.708
300.721
300.734
300.747
300.76
300.772
300.785
300.797
300.809
300.82
300.001
300.003
300.005
300.007
300.009
300.011
300.014
300.016
300.019
300.022
300.025
300.029
300.033
300.036
300.041
300.045
300.05
300.055
300.06
300.066
300.071
300.078
300.084
300.091
300.098
300.105
300.113
300.121
300.13
300.138
300.147
300.157
300.166
300.176
300.186
300.196
300.207
300.218
300.229
300.241
300.252
300.264
300.276
300.288
300.301
300.313
300.326
300.338
300.351
300.364
300.377
300.39
300.403
300.417
300.43
300.443
300.456
300.469
300.483
300.496
300.509
300.522
300.535
300.548
300.56
300.573
300.586
300.598
300.61
300.622
300.635
300.646
300.658
300.67
300.681
300.693
300.704
300.715
300.725
300.736
300.747
300.001
300.003
300.004
300.006
300.008
300.011
300.013
300.015
300.018
300.021
300.024
300.027
300.031
300.034
300.038
300.042
300.047
300.051
300.056
300.062
300.067
300.073
300.079
300.085
300.092
300.099
300.106
300.113
300.121
300.129
300.137
300.146
300.154
300.163
300.173
300.182
300.192
300.202
300.212
300.222
300.233
300.244
300.254
300.265
300.277
300.288
300.299
300.311
300.322
300.334
300.346
300.357
300.369
300.381
300.393
300.405
300.416
300.428
300.44
300.452
300.463
300.475
300.486
300.498
300.509
300.52
300.531
300.542
300.553
300.564
300.575
300.585
300.596
300.606
300.616
300.626
300.636
300.646
300.656
300.665
300.674
300.001
300.002
300.004
300.006
300.008
300.01
300.012
300.014
300.017
300.02
300.022
300.025
300.029
300.032
300.036
300.04
300.044
300.048
300.052
300.057
300.062
300.068
300.073
300.079
300.085
300.091
300.098
300.105
300.112
300.119
300.126
300.134
300.142
300.15
300.159
300.167
300.176
300.185
300.194
300.204
300.213
300.223
300.232
300.242
300.252
300.262
300.273
300.283
300.293
300.303
300.314
300.324
300.335
300.345
300.356
300.366
300.377
300.387
300.397
300.408
300.418
300.428
300.438
300.448
300.458
300.468
300.478
300.488
300.498
300.507
300.516
300.526
300.535
300.544
300.553
300.562
300.571
300.579
300.588
300.596
300.604
300.001
300.002
300.004
300.006
300.007
300.009
300.011
300.013
300.016
300.018
300.021
300.024
300.027
300.03
300.033
300.037
300.04
300.044
300.048
300.053
300.057
300.062
300.067
300.073
300.078
300.084
300.09
300.096
300.102
300.109
300.116
300.123
300.13
300.137
300.145
300.152
300.16
300.168
300.176
300.185
300.193
300.202
300.21
300.219
300.228
300.237
300.246
300.255
300.264
300.273
300.282
300.291
300.301
300.31
300.319
300.328
300.337
300.347
300.356
300.365
300.374
300.383
300.392
300.4
300.409
300.418
300.426
300.435
300.443
300.452
300.46
300.468
300.476
300.484
300.492
300.499
300.507
300.514
300.522
300.529
300.536
300.001
300.002
300.004
300.005
300.007
300.009
300.01
300.012
300.014
300.017
300.019
300.022
300.024
300.027
300.03
300.033
300.037
300.04
300.044
300.048
300.052
300.057
300.061
300.066
300.071
300.076
300.081
300.087
300.093
300.098
300.104
300.111
300.117
300.124
300.13
300.137
300.144
300.151
300.158
300.166
300.173
300.181
300.188
300.196
300.204
300.212
300.219
300.227
300.235
300.243
300.251
300.259
300.267
300.275
300.283
300.291
300.299
300.307
300.315
300.323
300.331
300.339
300.346
300.354
300.361
300.369
300.376
300.384
300.391
300.398
300.405
300.412
300.419
300.426
300.433
300.44
300.446
300.453
300.459
300.465
300.471
300.001
300.002
300.003
300.005
300.006
300.008
300.009
300.011
300.013
300.015
300.017
300.02
300.022
300.025
300.027
300.03
300.033
300.037
300.04
300.044
300.047
300.051
300.055
300.059
300.064
300.068
300.073
300.078
300.083
300.088
300.093
300.099
300.105
300.11
300.116
300.122
300.128
300.134
300.141
300.147
300.154
300.16
300.167
300.173
300.18
300.187
300.194
300.201
300.207
300.214
300.221
300.228
300.235
300.242
300.249
300.256
300.263
300.269
300.276
300.283
300.29
300.296
300.303
300.31
300.316
300.322
300.329
300.335
300.341
300.348
300.354
300.36
300.366
300.372
300.377
300.383
300.389
300.394
300.4
300.405
300.41
300.001
300.002
300.003
300.004
300.006
300.007
300.009
300.01
300.012
300.014
300.016
300.018
300.02
300.022
300.025
300.027
300.03
300.033
300.036
300.039
300.042
300.046
300.049
300.053
300.057
300.061
300.065
300.069
300.074
300.078
300.083
300.087
300.092
300.097
300.102
300.108
300.113
300.118
300.124
300.129
300.135
300.14
300.146
300.152
300.158
300.163
300.169
300.175
300.181
300.187
300.193
300.199
300.205
300.211
300.216
300.222
300.228
300.234
300.24
300.245
300.251
300.257
300.262
300.268
300.274
300.279
300.284
300.29
300.295
300.3
300.306
300.311
300.316
300.321
300.326
300.33
300.335
300.34
300.345
300.349
300.354
300.001
300.002
300.003
300.004
300.005
300.006
300.008
300.009
300.011
300.012
300.014
300.016
300.018
300.02
300.022
300.024
300.027
300.029
300.032
300.034
300.037
300.04
300.043
300.047
300.05
300.053
300.057
300.061
300.065
300.068
300.072
300.077
300.081
300.085
300.089
300.094
300.098
300.103
300.108
300.112
300.117
300.122
300.127
300.132
300.137
300.141
300.146
300.151
300.156
300.161
300.166
300.171
300.176
300.181
300.186
300.191
300.196
300.201
300.206
300.211
300.216
300.221
300.225
300.23
300.235
300.239
300.244
300.248
300.253
300.257
300.262
300.266
300.27
300.274
300.278
300.283
300.287
300.291
300.294
300.298
300.302
300
300.001
300.002
300.003
300.004
300.006
300.007
300.008
300.009
300.011
300.012
300.014
300.016
300.017
300.019
300.021
300.023
300.026
300.028
300.03
300.033
300.035
300.038
300.041
300.044
300.047
300.05
300.053
300.056
300.06
300.063
300.067
300.07
300.074
300.078
300.081
300.085
300.089
300.093
300.097
300.101
300.105
300.109
300.113
300.117
300.122
300.126
300.13
300.134
300.138
300.143
300.147
300.151
300.155
300.159
300.164
300.168
300.172
300.176
300.18
300.184
300.188
300.192
300.196
300.2
300.204
300.208
300.211
300.215
300.219
300.222
300.226
300.23
300.233
300.237
300.24
300.243
300.247
300.25
300.253
300.256
300
300.001
300.002
300.003
300.004
300.005
300.006
300.007
300.008
300.01
300.011
300.012
300.014
300.015
300.017
300.019
300.021
300.022
300.024
300.027
300.029
300.031
300.033
300.036
300.038
300.041
300.043
300.046
300.049
300.052
300.055
300.058
300.061
300.064
300.067
300.07
300.074
300.077
300.08
300.084
300.087
300.09
300.094
300.097
300.101
300.104
300.108
300.111
300.115
300.119
300.122
300.126
300.129
300.133
300.136
300.14
300.143
300.147
300.15
300.153
300.157
300.16
300.163
300.167
300.17
300.173
300.176
300.18
300.183
300.186
300.189
300.192
300.195
300.198
300.201
300.204
300.206
300.209
300.212
300.215
300.217
300
300.001
300.002
300.003
300.004
300.004
300.005
300.006
300.007
300.009
300.01
300.011
300.012
300.014
300.015
300.017
300.018
300.02
300.022
300.023
300.025
300.027
300.029
300.031
300.034
300.036
300.038
300.04
300.043
300.045
300.048
300.05
300.053
300.056
300.058
300.061
300.064
300.067
300.07
300.073
300.075
300.078
300.081
300.084
300.087
300.09
300.093
300.096
300.099
300.102
300.105
300.108
300.111
300.114
300.117
300.12
300.123
300.126
300.129
300.132
300.135
300.138
300.14
300.143
300.146
300.149
300.151
300.154
300.157
300.159
300.162
300.164
300.167
300.17
300.172
300.174
300.177
300.179
300.181
300.184
300.186
300
300.001
300.002
300.002
300.003
300.004
300.005
300.006
300.007
300.008
300.009
300.01
300.011
300.012
300.014
300.015
300.016
300.018
300.019
300.021
300.023
300.025
300.026
300.028
300.03
300.032
300.034
300.036
300.038
300.041
300.043
300.045
300.047
300.05
300.052
300.055
300.057
300.059
300.062
300.065
300.067
300.07
300.072
300.075
300.077
300.08
300.083
300.085
300.088
300.091
300.093
300.096
300.098
300.101
300.104
300.106
300.109
300.111
300.114
300.116
300.119
300.121
300.124
300.126
300.129
300.131
300.133
300.136
300.138
300.14
300.143
300.145
300.147
300.149
300.151
300.153
300.155
300.157
300.16
300.162
300.163
300
300.001
300.002
300.002
300.003
300.004
300.005
300.005
300.006
300.007
300.008
300.009
300.01
300.012
300.013
300.014
300.015
300.017
300.018
300.02
300.021
300.023
300.025
300.026
300.028
300.03
300.032
300.034
300.036
300.038
300.04
300.042
300.044
300.046
300.049
300.051
300.053
300.055
300.058
300.06
300.062
300.065
300.067
300.07
300.072
300.074
300.077
300.079
300.082
300.084
300.087
300.089
300.091
300.094
300.096
300.099
300.101
300.103
300.106
300.108
300.11
300.112
300.115
300.117
300.119
300.121
300.124
300.126
300.128
300.13
300.132
300.134
300.136
300.138
300.14
300.142
300.144
300.146
300.148
300.149
300.151
302.819
302.945
303.02
303.091
303.152
303.201
303.235
303.273
303.311
303.346
303.375
303.408
303.44
303.472
303.503
303.534
303.563
303.588
303.615
303.642
303.668
303.695
303.721
303.747
303.773
303.798
303.823
303.847
303.871
303.894
303.918
303.94
303.962
303.985
304.006
304.027
304.049
304.069
304.089
304.11
304.129
304.148
304.168
304.19
304.21
304.229
304.247
304.266
304.285
304.304
304.322
304.338
304.356
304.373
304.391
304.409
304.427
304.444
304.462
304.477
304.491
304.506
304.521
304.536
304.552
304.567
304.582
304.597
304.611
304.625
304.639
304.652
304.665
304.678
304.691
304.703
304.715
304.727
304.738
304.75
304.763
304.775
304.786
304.796
304.805
304.814
304.824
304.835
304.844
304.853
304.86
304.869
304.878
304.886
304.894
304.902
304.91
304.916
304.923
304.93
304.935
304.942
304.947
304.952
304.958
304.963
304.968
304.972
304.976
304.979
304.983
304.987
304.99
304.994
304.997
304.999
305.001
305.003
305.005
305.007
305.007
305.008
305.009
305.009
305.009
305.008
305.007
305.006
305.003
305.001
304.997
304.993
304.988
304.983
304.976
304.969
304.961
304.952
304.941
304.93
304.917
304.903
304.888
304.871
304.852
304.831
304.809
304.784
304.756
304.723
304.684
304.643
304.603
304.557
304.505
304.446
304.38
304.268
304.164
304.03
303.852
302.719
302.83
302.916
302.989
303.052
303.105
303.15
303.191
303.231
303.268
303.303
303.337
303.37
303.403
303.435
303.466
303.496
303.524
303.552
303.58
303.607
303.634
303.661
303.687
303.713
303.739
303.764
303.789
303.813
303.837
303.86
303.884
303.906
303.929
303.951
303.972
303.994
304.015
304.035
304.056
304.076
304.096
304.116
304.137
304.157
304.176
304.195
304.214
304.233
304.252
304.27
304.287
304.305
304.322
304.34
304.358
304.376
304.393
304.41
304.426
304.441
304.456
304.471
304.487
304.502
304.517
304.532
304.547
304.562
304.576
304.59
304.603
304.616
304.629
304.642
304.654
304.666
304.678
304.69
304.702
304.715
304.726
304.737
304.748
304.757
304.767
304.776
304.787
304.796
304.805
304.813
304.822
304.831
304.839
304.847
304.855
304.863
304.869
304.876
304.883
304.889
304.895
304.9
304.906
304.911
304.917
304.921
304.925
304.929
304.933
304.937
304.94
304.944
304.947
304.95
304.952
304.955
304.957
304.959
304.96
304.961
304.962
304.963
304.963
304.962
304.962
304.961
304.959
304.957
304.955
304.951
304.947
304.942
304.937
304.93
304.923
304.915
304.906
304.895
304.884
304.871
304.857
304.842
304.825
304.806
304.785
304.762
304.737
304.709
304.676
304.637
304.597
304.555
304.508
304.455
304.394
304.324
304.216
304.106
303.966
303.771
302.638
302.734
302.818
302.891
302.956
303.012
303.061
303.107
303.149
303.188
303.226
303.262
303.297
303.331
303.364
303.396
303.426
303.456
303.485
303.514
303.542
303.569
303.597
303.624
303.65
303.676
303.702
303.727
303.752
303.776
303.8
303.823
303.846
303.869
303.892
303.914
303.935
303.957
303.978
303.998
304.019
304.039