/*--------------------------------*- C++ -*----------------------------------*\
| =========                 |                                                 |
| \\      /  F ield         | OpenFOAM: The Open Source CFD Toolbox           |
|  \\    /   O peration     | Version:  2106                                  |
|   \\  /    A nd           | Website:  www.openfoam.com                      |
|    \\/     M anipulation  |                                                 |
\*---------------------------------------------------------------------------*/
FoamFile
{
    version     2.0;
    format      ascii;
    arch        "LSB;label=32;scalar=64";
    class       volVectorField;
    location    "2";
    object      U;
}
// * * * * * * * * * * * * * * * * * * * * * * * * * * * * * * * * * * * * * //

dimensions      [0 1 -1 0 0 0 0];

internalField   nonuniform List<vector> 
12013
(
(0.100017 -4.83742e-06 0)
(0.100088 -8.91718e-06 0)
(0.100202 -1.25679e-05 0)
(0.100348 -1.57789e-05 0)
(0.100521 -1.86441e-05 0)
(0.100717 -2.12131e-05 0)
(0.100932 -2.35133e-05 0)
(0.101164 -2.55617e-05 0)
(0.101409 -2.73676e-05 0)
(0.101664 -2.89388e-05 0)
(0.101927 -3.02859e-05 0)
(0.102196 -3.14251e-05 0)
(0.102469 -3.23831e-05 0)
(0.102744 -3.31956e-05 0)
(0.103019 -3.39073e-05 0)
(0.103295 -3.45683e-05 0)
(0.103571 -3.52309e-05 0)
(0.103847 -3.59453e-05 0)
(0.104123 -3.67551e-05 0)
(0.1044 -3.76952e-05 0)
(0.104679 -3.87908e-05 0)
(0.104962 -4.00563e-05 0)
(0.105249 -4.14955e-05 0)
(0.10554 -4.31045e-05 0)
(0.105838 -4.48719e-05 0)
(0.106141 -4.67818e-05 0)
(0.106452 -4.88156e-05 0)
(0.10677 -5.0953e-05 0)
(0.107096 -5.31734e-05 0)
(0.107429 -5.54574e-05 0)
(0.107769 -5.77862e-05 0)
(0.108117 -6.01422e-05 0)
(0.108472 -6.25093e-05 0)
(0.108833 -6.48725e-05 0)
(0.1092 -6.7217e-05 0)
(0.109573 -6.95297e-05 0)
(0.10995 -7.1796e-05 0)
(0.110333 -7.40024e-05 0)
(0.110719 -7.61343e-05 0)
(0.111108 -7.8176e-05 0)
(0.1115 -8.01112e-05 0)
(0.111893 -8.19222e-05 0)
(0.112287 -8.35889e-05 0)
(0.112681 -8.50899e-05 0)
(0.113074 -8.6401e-05 0)
(0.113465 -8.74952e-05 0)
(0.113853 -8.83425e-05 0)
(0.114237 -8.89091e-05 0)
(0.114616 -8.91565e-05 0)
(0.114988 -8.90415e-05 0)
(0.115352 -8.85141e-05 0)
(0.115707 -8.75177e-05 0)
(0.116051 -8.59869e-05 0)
(0.116382 -8.38456e-05 0)
(0.116698 -8.10057e-05 0)
(0.116998 -7.73632e-05 0)
(0.117278 -7.27958e-05 0)
(0.117536 -6.71582e-05 0)
(0.117769 -6.0276e-05 0)
(0.117974 -5.19392e-05 0)
(0.118146 -4.18924e-05 0)
(0.118282 -2.98211e-05 0)
(0.118375 -1.53363e-05 0)
(0.118419 2.05107e-06 0)
(0.118408 2.2975e-05 0)
(0.118332 4.82617e-05 0)
(0.11818 7.89884e-05 0)
(0.117938 0.000116594 0)
(0.11759 0.000163037 0)
(0.117114 0.000221044 0)
(0.11648 0.000294497 0)
(0.115652 0.000389057 0)
(0.114576 0.000513213 0)
(0.113181 0.000680043 0)
(0.111363 0.000910304 0)
(0.108968 0.00123789 0)
(0.105766 0.00171981 0)
(0.101381 0.00245723 0)
(0.0952118 0.00366012 0)
(0.0864906 0.00592472 0)
(0.0765711 0.0119642 0)
(0.100016 -1.4786e-05 0)
(0.100087 -2.73529e-05 0)
(0.100201 -3.8567e-05 0)
(0.100346 -4.84229e-05 0)
(0.100519 -5.72168e-05 0)
(0.100714 -6.51019e-05 0)
(0.100929 -7.21608e-05 0)
(0.101161 -7.84463e-05 0)
(0.101405 -8.39879e-05 0)
(0.10166 -8.88089e-05 0)
(0.101923 -9.29408e-05 0)
(0.102192 -9.64353e-05 0)
(0.102464 -9.93723e-05 0)
(0.102738 -0.000101862 0)
(0.103013 -0.000104042 0)
(0.103289 -0.000106065 0)
(0.103564 -0.000108093 0)
(0.103839 -0.000110278 0)
(0.104114 -0.000112755 0)
(0.104391 -0.000115632 0)
(0.104669 -0.000118985 0)
(0.104951 -0.000122859 0)
(0.105237 -0.000127266 0)
(0.105527 -0.000132192 0)
(0.105824 -0.000137605 0)
(0.106126 -0.000143454 0)
(0.106436 -0.000149683 0)
(0.106753 -0.000156229 0)
(0.107077 -0.00016303 0)
(0.107409 -0.000170025 0)
(0.107748 -0.000177156 0)
(0.108094 -0.000184371 0)
(0.108447 -0.000191618 0)
(0.108806 -0.000198853 0)
(0.109171 -0.000206031 0)
(0.109542 -0.000213108 0)
(0.109918 -0.000220044 0)
(0.110298 -0.000226794 0)
(0.110682 -0.000233315 0)
(0.111069 -0.000239558 0)
(0.111459 -0.000245474 0)
(0.111849 -0.000251008 0)
(0.112241 -0.000256099 0)
(0.112633 -0.000260681 0)
(0.113023 -0.00026468 0)
(0.113411 -0.000268013 0)
(0.113797 -0.000270589 0)
(0.114178 -0.000272303 0)
(0.114554 -0.00027304 0)
(0.114924 -0.000272664 0)
(0.115285 -0.000271026 0)
(0.115637 -0.000267952 0)
(0.115978 -0.000263242 0)
(0.116306 -0.000256664 0)
(0.11662 -0.000247948 0)
(0.116917 -0.000236779 0)
(0.117194 -0.000222785 0)
(0.11745 -0.000205522 0)
(0.117681 -0.000184461 0)
(0.117884 -0.000158966 0)
(0.118055 -0.00012826 0)
(0.118189 -9.13934e-05 0)
(0.118282 -4.71896e-05 0)
(0.118328 5.82677e-06 0)
(0.118318 6.95524e-05 0)
(0.118246 0.000146445 0)
(0.118101 0.000239703 0)
(0.11787 0.000353574 0)
(0.117537 0.000493801 0)
(0.117083 0.000668304 0)
(0.116483 0.000888228 0)
(0.115705 0.00116961 0)
(0.114706 0.00153604 0)
(0.11343 0.00202305 0)
(0.111801 0.00268523 0)
(0.109717 0.00360792 0)
(0.107044 0.00492537 0)
(0.103601 0.00684791 0)
(0.0991766 0.00970238 0)
(0.0938096 0.0139143 0)
(0.0891932 0.0194879 0)
(0.100015 -2.5188e-05 0)
(0.100085 -4.69653e-05 0)
(0.100198 -6.62807e-05 0)
(0.100343 -8.32501e-05 0)
(0.100515 -9.83869e-05 0)
(0.10071 -0.000111956 0)
(0.100924 -0.000124102 0)
(0.101155 -0.000134915 0)
(0.101398 -0.000144446 0)
(0.101653 -0.000152737 0)
(0.101915 -0.000159839 0)
(0.102183 -0.000165844 0)
(0.102454 -0.000170886 0)
(0.102727 -0.000175156 0)
(0.103001 -0.00017889 0)
(0.103276 -0.000182351 0)
(0.10355 -0.000185816 0)
(0.103824 -0.000189548 0)
(0.104098 -0.000193779 0)
(0.104373 -0.000198695 0)
(0.10465 -0.000204428 0)
(0.10493 -0.000211053 0)
(0.105214 -0.000218593 0)
(0.105503 -0.000227025 0)
(0.105797 -0.000236291 0)
(0.106097 -0.000246307 0)
(0.106405 -0.000256974 0)
(0.106719 -0.000268186 0)
(0.10704 -0.000279833 0)
(0.107369 -0.000291812 0)
(0.107705 -0.000304023 0)
(0.108048 -0.000316375 0)
(0.108398 -0.000328781 0)
(0.108754 -0.000341163 0)
(0.109116 -0.000353443 0)
(0.109483 -0.000365548 0)
(0.109855 -0.000377405 0)
(0.110231 -0.000388941 0)
(0.110611 -0.000400079 0)
(0.110993 -0.000410738 0)
(0.111378 -0.00042083 0)
(0.111764 -0.000430262 0)
(0.112151 -0.000438929 0)
(0.112538 -0.000446718 0)
(0.112923 -0.000453502 0)
(0.113306 -0.000459141 0)
(0.113686 -0.000463476 0)
(0.114062 -0.00046633 0)
(0.114433 -0.000467503 0)
(0.114796 -0.000466768 0)
(0.115152 -0.000463868 0)
(0.115498 -0.000458505 0)
(0.115834 -0.000450341 0)
(0.116156 -0.000438982 0)
(0.116464 -0.000423971 0)
(0.116755 -0.000404774 0)
(0.117027 -0.000380761 0)
(0.117278 -0.000351186 0)
(0.117504 -0.000315159 0)
(0.117702 -0.000271612 0)
(0.11787 -0.000219248 0)
(0.118002 -0.000156485 0)
(0.118094 -8.13704e-05 0)
(0.11814 8.52905e-06 0)
(0.118134 0.000116314 0)
(0.118068 0.000245961 0)
(0.117934 0.000402609 0)
(0.117719 0.000593005 0)
(0.117413 0.000826135 0)
(0.116997 0.00111417 0)
(0.116454 0.00147387 0)
(0.115759 0.00192867 0)
(0.114885 0.00251183 0)
(0.113797 0.00327122 0)
(0.112456 0.00427616 0)
(0.110824 0.00562679 0)
(0.108869 0.0074642 0)
(0.106591 0.00997529 0)
(0.104071 0.0133752 0)
(0.101638 0.0177717 0)
(0.100217 0.0225386 0)
(0.100014 -3.59803e-05 0)
(0.100083 -6.77313e-05 0)
(0.100195 -9.57053e-05 0)
(0.100339 -0.000120297 0)
(0.100509 -0.000142221 0)
(0.100703 -0.000161866 0)
(0.100917 -0.000179445 0)
(0.101146 -0.000195091 0)
(0.101389 -0.000208879 0)
(0.101642 -0.000220868 0)
(0.101903 -0.000231135 0)
(0.102169 -0.000239808 0)
(0.102439 -0.000247085 0)
(0.102711 -0.000253238 0)
(0.102984 -0.000258607 0)
(0.103257 -0.000263575 0)
(0.103529 -0.00026854 0)
(0.103801 -0.000273883 0)
(0.104074 -0.000279939 0)
(0.104347 -0.000286979 0)
(0.104622 -0.000295194 0)
(0.104899 -0.000304694 0)
(0.105181 -0.000315511 0)
(0.105466 -0.000327615 0)
(0.105758 -0.00034092 0)
(0.106055 -0.000355306 0)
(0.106359 -0.00037063 0)
(0.106669 -0.000386737 0)
(0.106987 -0.00040347 0)
(0.107312 -0.000420679 0)
(0.107643 -0.000438219 0)
(0.107982 -0.000455958 0)
(0.108326 -0.000473771 0)
(0.108677 -0.000491541 0)
(0.109034 -0.000509158 0)
(0.109395 -0.000526517 0)
(0.109761 -0.00054351 0)
(0.110132 -0.000560032 0)
(0.110505 -0.000575971 0)
(0.110881 -0.00059121 0)
(0.11126 -0.000605622 0)
(0.111639 -0.000619073 0)
(0.112019 -0.000631413 0)
(0.112398 -0.000642477 0)
(0.112776 -0.000652083 0)
(0.113151 -0.00066003 0)
(0.113523 -0.00066609 0)
(0.113891 -0.000670009 0)
(0.114253 -0.0006715 0)
(0.114609 -0.00067024 0)
(0.114956 -0.00066586 0)
(0.115294 -0.000657938 0)
(0.11562 -0.000645992 0)
(0.115934 -0.000629464 0)
(0.116234 -0.000607706 0)
(0.116517 -0.000579965 0)
(0.116781 -0.000545354 0)
(0.117024 -0.000502828 0)
(0.117243 -0.000451144 0)
(0.117436 -0.000388814 0)
(0.117599 -0.000314043 0)
(0.117728 -0.000224652 0)
(0.117818 -0.00011797 0)
(0.117866 9.30407e-06 0)
(0.117865 0.000161322 0)
(0.11781 0.000343341 0)
(0.117692 0.000562075 0)
(0.117503 0.000826186 0)
(0.117234 0.00114698 0)
(0.116873 0.00153938 0)
(0.116409 0.00202331 0)
(0.115827 0.00262555 0)
(0.115116 0.00338237 0)
(0.114263 0.00434284 0)
(0.113263 0.00557274 0)
(0.112125 0.00715772 0)
(0.110886 0.00920196 0)
(0.109632 0.0118128 0)
(0.108531 0.0150508 0)
(0.107869 0.018792 0)
(0.108029 0.0223884 0)
(0.100013 -4.7188e-05 0)
(0.100081 -8.96462e-05 0)
(0.100191 -0.000126859 0)
(0.100333 -0.000159611 0)
(0.100503 -0.000188794 0)
(0.100695 -0.00021493 0)
(0.100907 -0.000238311 0)
(0.101135 -0.000259112 0)
(0.101376 -0.000277438 0)
(0.101627 -0.000293366 0)
(0.101887 -0.000306999 0)
(0.102151 -0.000318507 0)
(0.10242 -0.000328149 0)
(0.10269 -0.000336289 0)
(0.102961 -0.000343374 0)
(0.103232 -0.000349911 0)
(0.103502 -0.000356429 0)
(0.103772 -0.000363434 0)
(0.104042 -0.000371371 0)
(0.104313 -0.000380601 0)
(0.104585 -0.000391379 0)
(0.104859 -0.000403851 0)
(0.105137 -0.000418064 0)
(0.105419 -0.000433977 0)
(0.105707 -0.000451477 0)
(0.106 -0.000470406 0)
(0.106299 -0.000490574 0)
(0.106605 -0.000511775 0)
(0.106917 -0.000533803 0)
(0.107236 -0.000556454 0)
(0.107562 -0.000579538 0)
(0.107894 -0.000602876 0)
(0.108233 -0.000626303 0)
(0.108577 -0.000649664 0)
(0.108927 -0.000672812 0)
(0.109281 -0.000695604 0)
(0.10964 -0.0007179 0)
(0.110002 -0.000739557 0)
(0.110367 -0.000760428 0)
(0.110735 -0.000780357 0)
(0.111104 -0.000799177 0)
(0.111475 -0.000816707 0)
(0.111845 -0.000832751 0)
(0.112215 -0.000847092 0)
(0.112583 -0.00085949 0)
(0.112948 -0.000869678 0)
(0.11331 -0.000877358 0)
(0.113667 -0.000882197 0)
(0.114019 -0.00088382 0)
(0.114363 -0.000881803 0)
(0.1147 -0.000875666 0)
(0.115026 -0.000864862 0)
(0.115342 -0.000848764 0)
(0.115645 -0.00082665 0)
(0.115934 -0.000797689 0)
(0.116207 -0.00076091 0)
(0.116461 -0.000715184 0)
(0.116695 -0.000659179 0)
(0.116907 -0.000591324 0)
(0.117092 -0.000509747 0)
(0.11725 -0.000412207 0)
(0.117376 -0.000296003 0)
(0.117466 -0.000157854 0)
(0.117517 6.24697e-06 0)
(0.117525 0.00020125 0)
(0.117483 0.00043333 0)
(0.117388 0.000710235 0)
(0.117234 0.00104174 0)
(0.117014 0.00144027 0)
(0.116722 0.00192168 0)
(0.116354 0.00250634 0)
(0.115907 0.00322034 0)
(0.115379 0.00409699 0)
(0.114777 0.00517816 0)
(0.114119 0.00651492 0)
(0.11344 0.00816574 0)
(0.112803 0.0101887 0)
(0.11231 0.0126207 0)
(0.112109 0.0154327 0)
(0.112377 0.0184443 0)
(0.113247 0.021198 0)
(0.100012 -5.88306e-05 0)
(0.100079 -0.000112704 0)
(0.100187 -0.000159758 0)
(0.100328 -0.000201228 0)
(0.100495 -0.000238167 0)
(0.100686 -0.000271234 0)
(0.100896 -0.000300803 0)
(0.101122 -0.000327101 0)
(0.101361 -0.00035026 0)
(0.10161 -0.000370381 0)
(0.101867 -0.000387592 0)
(0.10213 -0.000402107 0)
(0.102396 -0.000414254 0)
(0.102664 -0.000424484 0)
(0.102933 -0.000433362 0)
(0.103201 -0.000441526 0)
(0.103469 -0.00044964 0)
(0.103736 -0.000458343 0)
(0.104003 -0.000468198 0)
(0.104271 -0.00047966 0)
(0.104539 -0.000493054 0)
(0.10481 -0.000508568 0)
(0.105084 -0.000526262 0)
(0.105362 -0.000546086 0)
(0.105644 -0.000567902 0)
(0.105932 -0.00059151 0)
(0.106226 -0.000616672 0)
(0.106526 -0.000643127 0)
(0.106832 -0.000670615 0)
(0.107144 -0.000698879 0)
(0.107463 -0.000727679 0)
(0.107788 -0.000756786 0)
(0.108119 -0.000785991 0)
(0.108455 -0.000815098 0)
(0.108795 -0.000843919 0)
(0.109141 -0.000872273 0)
(0.10949 -0.000899983 0)
(0.109843 -0.000926869 0)
(0.110198 -0.000952743 0)
(0.110556 -0.000977409 0)
(0.110915 -0.00100066 0)
(0.111274 -0.00102226 0)
(0.111633 -0.00104198 0)
(0.111991 -0.00105953 0)
(0.112347 -0.00107461 0)
(0.1127 -0.0010869 0)
(0.11305 -0.00109603 0)
(0.113394 -0.00110158 0)
(0.113733 -0.00110308 0)
(0.114064 -0.00110002 0)
(0.114388 -0.00109181 0)
(0.114701 -0.00107776 0)
(0.115004 -0.00105712 0)
(0.115295 -0.00102902 0)
(0.115571 -0.00099243 0)
(0.115832 -0.000946199 0)
(0.116075 -0.000888967 0)
(0.116299 -0.000819151 0)
(0.116501 -0.000734892 0)
(0.116679 -0.000633997 0)
(0.116832 -0.000513863 0)
(0.116955 -0.000371381 0)
(0.117046 -0.000202827 0)
(0.117103 -3.71514e-06 0)
(0.117122 0.000231364 0)
(0.1171 0.000509047 0)
(0.117034 0.000837468 0)
(0.116921 0.00122661 0)
(0.116759 0.00168873 0)
(0.116547 0.00223891 0)
(0.116286 0.00289556 0)
(0.11598 0.00368098 0)
(0.115638 0.00462171 0)
(0.115277 0.00574827 0)
(0.114925 0.00709371 0)
(0.114626 0.00868967 0)
(0.114442 0.0105577 0)
(0.114457 0.0126928 0)
(0.114773 0.0150353 0)
(0.115484 0.0174319 0)
(0.116617 0.0196004 0)
(0.100011 -7.09247e-05 0)
(0.100077 -0.000136902 0)
(0.100183 -0.000194415 0)
(0.100321 -0.000245176 0)
(0.100487 -0.000290391 0)
(0.100675 -0.000330848 0)
(0.100882 -0.000367012 0)
(0.101106 -0.000399164 0)
(0.101343 -0.000427468 0)
(0.101589 -0.000452048 0)
(0.101844 -0.000473062 0)
(0.102104 -0.000490767 0)
(0.102368 -0.000505561 0)
(0.102633 -0.00051799 0)
(0.102899 -0.000528738 0)
(0.103165 -0.00053858 0)
(0.10343 -0.000548323 0)
(0.103694 -0.000558744 0)
(0.103958 -0.000570531 0)
(0.104221 -0.000584242 0)
(0.104486 -0.000600275 0)
(0.104753 -0.000618863 0)
(0.105022 -0.000640085 0)
(0.105294 -0.000663883 0)
(0.105571 -0.000690092 0)
(0.105853 -0.000718471 0)
(0.10614 -0.000748729 0)
(0.106433 -0.000780553 0)
(0.106732 -0.00081362 0)
(0.107037 -0.00084762 0)
(0.107347 -0.000882256 0)
(0.107663 -0.00091725 0)
(0.107985 -0.000952345 0)
(0.108311 -0.000987296 0)
(0.108642 -0.00102188 0)
(0.108977 -0.00105586 0)
(0.109315 -0.00108904 0)
(0.109657 -0.00112118 0)
(0.110001 -0.00115207 0)
(0.110346 -0.00118145 0)
(0.110692 -0.00120908 0)
(0.111039 -0.00123468 0)
(0.111384 -0.00125796 0)
(0.111729 -0.00127858 0)
(0.112071 -0.00129618 0)
(0.11241 -0.00131037 0)
(0.112745 -0.0013207 0)
(0.113075 -0.00132669 0)
(0.113399 -0.00132777 0)
(0.113716 -0.00132334 0)
(0.114024 -0.00131269 0)
(0.114323 -0.00129503 0)
(0.114611 -0.00126948 0)
(0.114887 -0.00123502 0)
(0.11515 -0.00119047 0)
(0.115398 -0.0011345 0)
(0.115629 -0.00106557 0)
(0.115841 -0.00098188 0)
(0.116034 -0.000881361 0)
(0.116206 -0.000761576 0)
(0.116353 -0.000619674 0)
(0.116475 -0.0004523 0)
(0.11657 -0.000255489 0)
(0.116635 -2.45548e-05 0)
(0.116669 0.000246006 0)
(0.11667 0.000562781 0)
(0.116638 0.000933635 0)
(0.116572 0.0013679 0)
(0.116474 0.00187658 0)
(0.116345 0.0024726 0)
(0.116192 0.00317085 0)
(0.116023 0.00398819 0)
(0.115853 0.00494298 0)
(0.115703 0.00605402 0)
(0.115602 0.00733839 0)
(0.115589 0.00880749 0)
(0.115715 0.0104604 0)
(0.11604 0.0122739 0)
(0.116623 0.0141884 0)
(0.117506 0.0160942 0)
(0.118683 0.0178274 0)
(0.10001 -8.34865e-05 0)
(0.100074 -0.000162241 0)
(0.100179 -0.00023084 0)
(0.100314 -0.000291476 0)
(0.100477 -0.000345501 0)
(0.100663 -0.000393826 0)
(0.100868 -0.000437011 0)
(0.101088 -0.000475391 0)
(0.101322 -0.000509166 0)
(0.101566 -0.000538487 0)
(0.101818 -0.00056354 0)
(0.102075 -0.00058463 0)
(0.102335 -0.000602223 0)
(0.102598 -0.000616964 0)
(0.102861 -0.00062966 0)
(0.103123 -0.000641227 0)
(0.103385 -0.00065262 0)
(0.103645 -0.000664762 0)
(0.103905 -0.000678473 0)
(0.104165 -0.000694419 0)
(0.104425 -0.000713078 0)
(0.104687 -0.000734735 0)
(0.104951 -0.000759488 0)
(0.105217 -0.000787274 0)
(0.105488 -0.000817903 0)
(0.105763 -0.000851092 0)
(0.106043 -0.000886498 0)
(0.106328 -0.000923747 0)
(0.106618 -0.000962459 0)
(0.106914 -0.00100226 0)
(0.107215 -0.0010428 0)
(0.107521 -0.00108374 0)
(0.107832 -0.00112477 0)
(0.108147 -0.00116561 0)
(0.108467 -0.00120597 0)
(0.10879 -0.00124559 0)
(0.109116 -0.00128422 0)
(0.109445 -0.00132158 0)
(0.109775 -0.00135741 0)
(0.110107 -0.00139142 0)
(0.110439 -0.00142331 0)
(0.110771 -0.00145276 0)
(0.111102 -0.00147942 0)
(0.111431 -0.0015029 0)
(0.111758 -0.00152277 0)
(0.112081 -0.00153859 0)
(0.1124 -0.00154983 0)
(0.112714 -0.00155593 0)
(0.113021 -0.00155625 0)
(0.113322 -0.00155009 0)
(0.113614 -0.00153664 0)
(0.113897 -0.00151503 0)
(0.114169 -0.00148424 0)
(0.11443 -0.00144313 0)
(0.114677 -0.00139041 0)
(0.114911 -0.00132461 0)
(0.115129 -0.00124404 0)
(0.115331 -0.00114677 0)
(0.115515 -0.00103059 0)
(0.115679 -0.000892917 0)
(0.115823 -0.000730805 0)
(0.115945 -0.000540822 0)
(0.116044 -0.000318998 0)
(0.11612 -6.07466e-05 0)
(0.116172 0.000239184 0)
(0.116199 0.000586856 0)
(0.116204 0.000989294 0)
(0.116188 0.0014545 0)
(0.116153 0.0019915 0)
(0.116106 0.00261026 0)
(0.116055 0.00332152 0)
(0.11601 0.0041364 0)
(0.115987 0.0050656 0)
(0.116007 0.00611819 0)
(0.116094 0.00729961 0)
(0.11628 0.00860879 0)
(0.116602 0.0100341 0)
(0.117095 0.0115482 0)
(0.117791 0.013103 0)
(0.118707 0.0146259 0)
(0.119826 0.0160243 0)
(0.100009 -9.65335e-05 0)
(0.100072 -0.000188724 0)
(0.100174 -0.000269043 0)
(0.100307 -0.000340143 0)
(0.100467 -0.000403522 0)
(0.100649 -0.000460209 0)
(0.100851 -0.000510853 0)
(0.101069 -0.000555851 0)
(0.101299 -0.00059544 0)
(0.10154 -0.000629796 0)
(0.101788 -0.000659139 0)
(0.102042 -0.000683818 0)
(0.102299 -0.000704372 0)
(0.102558 -0.000721545 0)
(0.102817 -0.000736268 0)
(0.103076 -0.000749602 0)
(0.103334 -0.000762657 0)
(0.10359 -0.000776506 0)
(0.103846 -0.000792108 0)
(0.104101 -0.000810244 0)
(0.104356 -0.000831479 0)
(0.104613 -0.000856152 0)
(0.104871 -0.000884389 0)
(0.105131 -0.000916125 0)
(0.105394 -0.000951145 0)
(0.105662 -0.000989125 0)
(0.105933 -0.00102967 0)
(0.10621 -0.00107234 0)
(0.106491 -0.0011167 0)
(0.106776 -0.0011623 0)
(0.107067 -0.00120874 0)
(0.107362 -0.00125562 0)
(0.107661 -0.00130257 0)
(0.107965 -0.00134926 0)
(0.108272 -0.00139536 0)
(0.108582 -0.00144056 0)
(0.108894 -0.00148455 0)
(0.109208 -0.00152701 0)
(0.109524 -0.00156765 0)
(0.109841 -0.00160612 0)
(0.110158 -0.00164208 0)
(0.110474 -0.00167515 0)
(0.110788 -0.00170494 0)
(0.111101 -0.00173099 0)
(0.111411 -0.00175284 0)
(0.111717 -0.00176996 0)
(0.112018 -0.00178176 0)
(0.112314 -0.00178761 0)
(0.112604 -0.0017868 0)
(0.112887 -0.00177855 0)
(0.113161 -0.00176197 0)
(0.113427 -0.00173609 0)
(0.113682 -0.00169981 0)
(0.113927 -0.00165191 0)
(0.114159 -0.001591 0)
(0.114379 -0.00151551 0)
(0.114584 -0.00142368 0)
(0.114775 -0.00131352 0)
(0.11495 -0.00118276 0)
(0.115108 -0.00102883 0)
(0.115249 -0.000848795 0)
(0.115373 -0.000639356 0)
(0.115479 -0.000396756 0)
(0.115566 -0.000116777 0)
(0.115637 0.000205259 0)
(0.115692 0.000574537 0)
(0.115734 0.000996837 0)
(0.115766 0.00147844 0)
(0.115792 0.00202603 0)
(0.11582 0.00264646 0)
(0.115857 0.00334644 0)
(0.115916 0.00413205 0)
(0.11601 0.00500792 0)
(0.116157 0.00597625 0)
(0.116375 0.00703536 0)
(0.116689 0.00817799 0)
(0.117119 0.00938927 0)
(0.117687 0.0106447 0)
(0.118409 0.0119089 0)
(0.119287 0.0131361 0)
(0.120306 0.014274 0)
(0.100008 -0.000110081 0)
(0.10007 -0.000216349 0)
(0.100169 -0.000309025 0)
(0.100299 -0.000391178 0)
(0.100456 -0.000464465 0)
(0.100635 -0.000530014 0)
(0.100833 -0.000588568 0)
(0.101047 -0.000640586 0)
(0.101273 -0.000686342 0)
(0.10151 -0.000726042 0)
(0.101754 -0.000759937 0)
(0.102004 -0.000788423 0)
(0.102257 -0.00081211 0)
(0.102512 -0.000831842 0)
(0.102768 -0.000848675 0)
(0.103023 -0.000863817 0)
(0.103276 -0.000878534 0)
(0.103529 -0.000894059 0)
(0.10378 -0.000911493 0)
(0.10403 -0.000931738 0)
(0.10428 -0.000955455 0)
(0.10453 -0.000983045 0)
(0.104781 -0.00101466 0)
(0.105035 -0.00105025 0)
(0.10529 -0.00108957 0)
(0.105549 -0.00113226 0)
(0.105812 -0.00117786 0)
(0.106079 -0.00122588 0)
(0.106349 -0.00127581 0)
(0.106624 -0.00132715 0)
(0.106903 -0.00137941 0)
(0.107186 -0.00143215 0)
(0.107473 -0.00148494 0)
(0.107763 -0.00153738 0)
(0.108056 -0.00158909 0)
(0.108352 -0.00163972 0)
(0.108649 -0.0016889 0)
(0.108949 -0.00173629 0)
(0.109249 -0.00178151 0)
(0.109549 -0.0018242 0)
(0.109849 -0.00186396 0)
(0.110147 -0.00190036 0)
(0.110445 -0.00193295 0)
(0.110739 -0.00196124 0)
(0.111031 -0.0019847 0)
(0.111318 -0.00200274 0)
(0.111601 -0.00201472 0)
(0.111879 -0.00201994 0)
(0.11215 -0.00201764 0)
(0.112414 -0.00200696 0)
(0.11267 -0.00198695 0)
(0.112918 -0.00195659 0)
(0.113156 -0.0019147 0)
(0.113384 -0.00186002 0)
(0.113601 -0.0017911 0)
(0.113806 -0.00170635 0)
(0.113999 -0.001604 0)
(0.114179 -0.00148206 0)
(0.114346 -0.00133833 0)
(0.114499 -0.00117034 0)
(0.114638 -0.000975362 0)
(0.114764 -0.000750357 0)
(0.114877 -0.000491991 0)
(0.114978 -0.000196626 0)
(0.115068 0.000139633 0)
(0.11515 0.000520865 0)
(0.115227 0.000951409 0)
(0.115303 0.00143571 0)
(0.115382 0.00197815 0)
(0.115473 0.00258273 0)
(0.115583 0.00325281 0)
(0.115723 0.0039906 0)
(0.115903 0.00479656 0)
(0.116136 0.00566874 0)
(0.116438 0.00660194 0)
(0.116822 0.00758683 0)
(0.117302 0.00860927 0)
(0.117888 0.00964974 0)
(0.118587 0.0106836 0)
(0.119396 0.0116822 0)
(0.120303 0.0126163 0)
(0.100006 -0.000124139 0)
(0.100067 -0.000245109 0)
(0.100164 -0.000350776 0)
(0.100291 -0.000444571 0)
(0.100444 -0.000528315 0)
(0.10062 -0.000603234 0)
(0.100814 -0.000670155 0)
(0.101023 -0.000729601 0)
(0.101245 -0.000781888 0)
(0.101478 -0.00082725 0)
(0.101717 -0.000865971 0)
(0.101963 -0.000898493 0)
(0.102212 -0.000925495 0)
(0.102462 -0.000947918 0)
(0.102713 -0.000966946 0)
(0.102963 -0.000983932 0)
(0.103212 -0.0010003 0)
(0.10346 -0.00101745 0)
(0.103705 -0.00103663 0)
(0.10395 -0.00105887 0)
(0.104194 -0.00108493 0)
(0.104438 -0.00111529 0)
(0.104682 -0.00115013 0)
(0.104928 -0.00118941 0)
(0.105175 -0.00123286 0)
(0.105425 -0.0012801 0)
(0.105678 -0.0013306 0)
(0.105934 -0.00138382 0)
(0.106194 -0.00143918 0)
(0.106457 -0.0014961 0)
(0.106724 -0.00155405 0)
(0.106994 -0.00161248 0)
(0.107267 -0.00167093 0)
(0.107543 -0.00172894 0)
(0.107821 -0.00178606 0)
(0.108101 -0.00184189 0)
(0.108383 -0.00189603 0)
(0.108665 -0.00194806 0)
(0.108948 -0.00199759 0)
(0.109231 -0.00204418 0)
(0.109513 -0.00208739 0)
(0.109794 -0.00212675 0)
(0.110072 -0.00216177 0)
(0.110348 -0.0021919 0)
(0.11062 -0.00221655 0)
(0.110888 -0.0022351 0)
(0.111152 -0.00224686 0)
(0.11141 -0.00225108 0)
(0.111662 -0.00224693 0)
(0.111907 -0.00223353 0)
(0.112144 -0.00220988 0)
(0.112373 -0.00217492 0)
(0.112594 -0.00212746 0)
(0.112805 -0.0020662 0)
(0.113007 -0.00198972 0)
(0.113198 -0.00189644 0)
(0.113379 -0.00178466 0)
(0.113549 -0.00165248 0)
(0.113708 -0.00149786 0)
(0.113856 -0.00131854 0)
(0.113994 -0.00111211 0)
(0.114123 -0.000875954 0)
(0.114243 -0.000607287 0)
(0.114356 -0.000303185 0)
(0.114465 3.93801e-05 0)
(0.114571 0.000423294 0)
(0.114678 0.000851445 0)
(0.114791 0.00132657 0)
(0.114915 0.00185105 0)
(0.115056 0.0024266 0)
(0.115221 0.00305409 0)
(0.115417 0.00373314 0)
(0.115655 0.00446174 0)
(0.115942 0.00523591 0)
(0.116289 0.00604927 0)
(0.116704 0.00689277 0)
(0.117194 0.00775452 0)
(0.117764 0.00861996 0)
(0.118414 0.00947236 0)
(0.119143 0.010294 0)
(0.119939 0.0110681 0)
(0.100005 -0.000138712 0)
(0.100065 -0.000274988 0)
(0.100159 -0.000394268 0)
(0.100283 -0.000500288 0)
(0.100432 -0.000595034 0)
(0.100603 -0.000679824 0)
(0.100792 -0.00075557 0)
(0.100997 -0.000822857 0)
(0.101214 -0.000882041 0)
(0.101442 -0.00093339 0)
(0.101677 -0.000977217 0)
(0.101917 -0.00101401 0)
(0.102161 -0.00104452 0)
(0.102406 -0.00106977 0)
(0.102652 -0.00109108 0)
(0.102897 -0.00110994 0)
(0.103141 -0.00112795 0)
(0.103383 -0.00114665 0)
(0.103623 -0.00116746 0)
(0.103861 -0.00119154 0)
(0.104099 -0.00121977 0)
(0.104335 -0.00125268 0)
(0.104572 -0.00129052 0)
(0.104809 -0.00133326 0)
(0.105048 -0.00138061 0)
(0.105288 -0.00143216 0)
(0.105531 -0.00148733 0)
(0.105776 -0.00154552 0)
(0.106023 -0.00160607 0)
(0.106274 -0.00166835 0)
(0.106527 -0.00173173 0)
(0.106783 -0.00179562 0)
(0.107042 -0.00185947 0)
(0.107303 -0.00192277 0)
(0.107565 -0.00198502 0)
(0.107829 -0.00204575 0)
(0.108094 -0.00210451 0)
(0.108359 -0.00216084 0)
(0.108624 -0.00221429 0)
(0.108888 -0.00226439 0)
(0.109152 -0.00231064 0)
(0.109413 -0.00235254 0)
(0.109672 -0.00238955 0)
(0.109928 -0.00242107 0)
(0.11018 -0.00244648 0)
(0.110428 -0.00246512 0)
(0.110671 -0.00247626 0)
(0.110909 -0.0024791 0)
(0.111141 -0.00247281 0)
(0.111367 -0.00245647 0)
(0.111585 -0.00242907 0)
(0.111796 -0.00238954 0)
(0.111999 -0.00233671 0)
(0.112194 -0.0022693 0)
(0.11238 -0.00218595 0)
(0.112557 -0.00208518 0)
(0.112726 -0.00196539 0)
(0.112886 -0.00182487 0)
(0.113038 -0.00166181 0)
(0.113182 -0.00147426 0)
(0.113319 -0.00126021 0)
(0.11345 -0.00101755 0)
(0.113577 -0.000744124 0)
(0.113701 -0.000437772 0)
(0.113825 -9.63766e-05 0)
(0.113951 0.000281948 0)
(0.114084 0.000698727 0)
(0.114226 0.00115526 0)
(0.114382 0.00165235 0)
(0.114559 0.00219009 0)
(0.114761 0.00276772 0)
(0.114994 0.00338335 0)
(0.115264 0.00403382 0)
(0.115579 0.00471452 0)
(0.115942 0.00541925 0)
(0.11636 0.0061402 0)
(0.116835 0.00686808 0)
(0.117369 0.0075924 0)
(0.117961 0.00830196 0)
(0.118608 0.00898571 0)
(0.119302 0.00963393 0)
(0.100004 -0.000153794 0)
(0.100062 -0.000305955 0)
(0.100154 -0.000439453 0)
(0.100274 -0.000558263 0)
(0.100418 -0.000664544 0)
(0.100585 -0.0007597 0)
(0.100769 -0.00084472 0)
(0.100969 -0.000920254 0)
(0.101181 -0.000986701 0)
(0.101402 -0.00104436 0)
(0.101632 -0.00109357 0)
(0.101866 -0.00113487 0)
(0.102104 -0.00116907 0)
(0.102344 -0.00119729 0)
(0.102584 -0.00122097 0)
(0.102823 -0.00124173 0)
(0.103061 -0.00126134 0)
(0.103297 -0.00128151 0)
(0.103531 -0.0013038 0)
(0.103762 -0.00132954 0)
(0.103992 -0.00135969 0)
(0.104221 -0.0013949 0)
(0.10445 -0.00143546 0)
(0.104678 -0.00148135 0)
(0.104907 -0.00153229 0)
(0.105137 -0.00158783 0)
(0.105368 -0.00164736 0)
(0.105601 -0.00171019 0)
(0.105836 -0.00177562 0)
(0.106074 -0.00184292 0)
(0.106313 -0.0019114 0)
(0.106554 -0.00198041 0)
(0.106797 -0.00204932 0)
(0.107042 -0.00211755 0)
(0.107288 -0.00218454 0)
(0.107534 -0.00224978 0)
(0.107781 -0.00231275 0)
(0.108028 -0.00237294 0)
(0.108274 -0.00242987 0)
(0.10852 -0.00248301 0)
(0.108763 -0.00253183 0)
(0.109004 -0.00257579 0)
(0.109243 -0.0026143 0)
(0.109479 -0.00264674 0)
(0.10971 -0.00267245 0)
(0.109938 -0.00269075 0)
(0.110161 -0.00270088 0)
(0.110378 -0.00270203 0)
(0.11059 -0.00269337 0)
(0.110795 -0.00267395 0)
(0.110995 -0.00264281 0)
(0.111187 -0.00259889 0)
(0.111373 -0.00254107 0)
(0.111551 -0.00246816 0)
(0.111722 -0.00237888 0)
(0.111886 -0.0022719 0)
(0.112043 -0.00214581 0)
(0.112194 -0.00199912 0)
(0.112338 -0.00183032 0)
(0.112478 -0.00163783 0)
(0.112613 -0.00142008 0)
(0.112746 -0.00117549 0)
(0.112877 -0.000902552 0)
(0.11301 -0.000599844 0)
(0.113145 -0.000266093 0)
(0.113287 9.97699e-05 0)
(0.113437 0.000498205 0)
(0.113599 0.000929377 0)
(0.113778 0.00139298 0)
(0.113976 0.00188809 0)
(0.114199 0.00241301 0)
(0.114451 0.0029652 0)
(0.114735 0.00354118 0)
(0.115056 0.00413652 0)
(0.115416 0.0047458 0)
(0.115819 0.00536276 0)
(0.116264 0.00598041 0)
(0.116753 0.00659135 0)
(0.117283 0.00718811 0)
(0.117851 0.00776373 0)
(0.118452 0.00831253 0)
(0.100002 -0.000169367 0)
(0.100059 -0.000337962 0)
(0.100148 -0.000486254 0)
(0.100264 -0.000618398 0)
(0.100404 -0.000736723 0)
(0.100565 -0.000842718 0)
(0.100744 -0.000937448 0)
(0.100938 -0.00102162 0)
(0.101144 -0.00109568 0)
(0.101359 -0.00115996 0)
(0.101582 -0.00121484 0)
(0.10181 -0.00126088 0)
(0.102042 -0.00129895 0)
(0.102275 -0.00133027 0)
(0.102508 -0.00135638 0)
(0.102741 -0.00137906 0)
(0.102972 -0.00140021 0)
(0.103201 -0.00142173 0)
(0.103427 -0.00144534 0)
(0.103652 -0.00147249 0)
(0.103874 -0.0015043 0)
(0.104094 -0.00154149 0)
(0.104313 -0.00158441 0)
(0.104532 -0.00163308 0)
(0.10475 -0.00168723 0)
(0.104969 -0.00174636 0)
(0.105189 -0.00180983 0)
(0.105409 -0.00187689 0)
(0.105631 -0.00194678 0)
(0.105854 -0.00201868 0)
(0.106078 -0.00209184 0)
(0.106304 -0.00216553 0)
(0.106531 -0.00223905 0)
(0.106759 -0.00231175 0)
(0.106987 -0.00238302 0)
(0.107216 -0.00245227 0)
(0.107444 -0.00251895 0)
(0.107672 -0.0025825 0)
(0.107899 -0.00264238 0)
(0.108124 -0.00269803 0)
(0.108347 -0.00274889 0)
(0.108568 -0.00279437 0)
(0.108786 -0.00283386 0)
(0.109 -0.00286673 0)
(0.109211 -0.00289228 0)
(0.109417 -0.00290982 0)
(0.109619 -0.00291859 0)
(0.109816 -0.0029178 0)
(0.110007 -0.00290659 0)
(0.110193 -0.00288408 0)
(0.110373 -0.00284934 0)
(0.110548 -0.00280136 0)
(0.110716 -0.00273912 0)
(0.110878 -0.00266153 0)
(0.111034 -0.00256747 0)
(0.111185 -0.00245578 0)
(0.11133 -0.00232526 0)
(0.111472 -0.00217472 0)
(0.111609 -0.00200296 0)
(0.111743 -0.00180879 0)
(0.111876 -0.00159108 0)
(0.112008 -0.00134879 0)
(0.112142 -0.00108099 0)
(0.112279 -0.000786904 0)
(0.112421 -0.000465973 0)
(0.112572 -0.000117852 0)
(0.112732 0.000257389 0)
(0.112906 0.000659005 0)
(0.113096 0.00108599 0)
(0.113305 0.00153687 0)
(0.113536 0.00200956 0)
(0.113792 0.00250139 0)
(0.114075 0.00300906 0)
(0.114387 0.00352869 0)
(0.114731 0.00405586 0)
(0.115107 0.00458571 0)
(0.115514 0.00511314 0)
(0.115953 0.00563297 0)
(0.116421 0.00614019 0)
(0.116916 0.00663039 0)
(0.117434 0.00710021 0)
(0.1 -0.000185402 0)
(0.100056 -0.000370938 0)
(0.100142 -0.000534556 0)
(0.100254 -0.000680546 0)
(0.100389 -0.000811391 0)
(0.100545 -0.00092867 0)
(0.100717 -0.00103351 0)
(0.100905 -0.00112669 0)
(0.101104 -0.0012087 0)
(0.101312 -0.00127989 0)
(0.101528 -0.00134068 0)
(0.101748 -0.00139167 0)
(0.101972 -0.00143378 0)
(0.102198 -0.00146831 0)
(0.102424 -0.00149691 0)
(0.102649 -0.00152149 0)
(0.102873 -0.00154413 0)
(0.103094 -0.00156685 0)
(0.103312 -0.00159156 0)
(0.103528 -0.00161986 0)
(0.103741 -0.001653 0)
(0.103952 -0.00169179 0)
(0.104161 -0.00173666 0)
(0.104369 -0.00178767 0)
(0.104577 -0.00184455 0)