/*--------------------------------*- C++ -*----------------------------------*\
| =========                 |                                                 |
| \\      /  F ield         | OpenFOAM: The Open Source CFD Toolbox           |
|  \\    /   O peration     | Version:  2106                                  |
|   \\  /    A nd           | Website:  www.openfoam.com                      |
|    \\/     M anipulation  |                                                 |
\*---------------------------------------------------------------------------*/
FoamFile
{
    version     2.0;
    format      ascii;
    arch        "LSB;label=32;scalar=64";
    class       surfaceScalarField;
    location    "1.2";
    object      phi;
}
// * * * * * * * * * * * * * * * * * * * * * * * * * * * * * * * * * * * * * //

dimensions      [1 0 -1 0 0 0 0];

oriented        oriented;

internalField   nonuniform List<scalar> 
23692
(
9.31019e-05
-2.23701e-08
9.31409e-05
-3.88728e-08
9.31913e-05
-5.01486e-08
9.32471e-05
-5.55865e-08
9.33028e-05
-5.53579e-08
9.33531e-05
-4.99236e-08
9.3394e-05
-4.03256e-08
9.34227e-05
-2.81851e-08
9.34388e-05
-1.54034e-08
9.34434e-05
-3.78641e-09
9.34389e-05
5.30279e-09
9.34287e-05
1.11206e-08
9.34163e-05
1.35431e-08
9.34045e-05
1.29344e-08
9.33958e-05
9.92337e-09
9.33919e-05
5.22729e-09
9.33939e-05
-5.00559e-10
9.34022e-05
-6.74576e-09
9.34171e-05
-1.31581e-08
9.34384e-05
-1.95305e-08
9.34661e-05
-2.57611e-08
9.35e-05
-3.18245e-08
9.35399e-05
-3.77358e-08
9.35857e-05
-4.35192e-08
9.36372e-05
-4.92022e-08
9.36945e-05
-5.48059e-08
9.37575e-05
-6.03414e-08
9.3826e-05
-6.58104e-08
9.39e-05
-7.12034e-08
9.39795e-05
-7.6509e-08
9.40642e-05
-8.17095e-08
9.41541e-05
-8.6781e-08
9.42491e-05
-9.17021e-08
9.43489e-05
-9.64445e-08
9.44533e-05
-1.0098e-07
9.4562e-05
-1.05281e-07
9.46749e-05
-1.09315e-07
9.47917e-05
-1.13047e-07
9.49118e-05
-1.16442e-07
9.50351e-05
-1.19463e-07
9.51611e-05
-1.22065e-07
9.52892e-05
-1.24207e-07
9.54191e-05
-1.25837e-07
9.555e-05
-1.26905e-07
9.56815e-05
-1.27355e-07
9.58127e-05
-1.27122e-07
9.59431e-05
-1.26141e-07
9.60716e-05
-1.24336e-07
9.61975e-05
-1.21623e-07
9.63197e-05
-1.17914e-07
9.64371e-05
-1.13104e-07
9.65485e-05
-1.07078e-07
9.66526e-05
-9.97052e-08
9.67478e-05
-9.08362e-08
9.68325e-05
-8.02984e-08
9.69047e-05
-6.78903e-08
9.69625e-05
-5.3377e-08
9.70034e-05
-3.64821e-08
9.70246e-05
-1.68742e-08
9.70231e-05
5.85039e-09
9.69953e-05
3.21826e-08
9.69369e-05
6.27212e-08
9.6843e-05
9.82076e-08
9.67078e-05
1.39573e-07
9.65241e-05
1.88004e-07
9.62833e-05
2.45026e-07
9.59749e-05
3.12636e-07
9.55857e-05
3.93485e-07
9.50987e-05
4.91155e-07
9.44923e-05
6.1057e-07
9.37378e-05
7.58646e-07
9.27966e-05
9.45291e-07
9.16157e-05
1.18502e-06
9.01201e-05
1.49955e-06
8.8202e-05
1.92215e-06
8.57013e-05
2.50468e-06
8.23762e-05
3.32903e-06
7.78534e-05
4.52661e-06
7.15339e-05
6.32336e-06
6.23875e-05
9.15026e-06
1.41629e-05
4.82284e-05
9.96229e-05
-4.59357e-08
9.96646e-05
-8.04021e-08
9.97184e-05
-1.03843e-07
9.97783e-05
-1.15134e-07
9.9838e-05
-1.14707e-07
9.9892e-05
-1.03506e-07
9.99359e-05
-8.36761e-08
9.99669e-05
-5.85531e-08
9.99843e-05
-3.20853e-08
9.99893e-05
-8.00646e-09
9.99847e-05
1.08606e-08
9.99738e-05
2.2971e-08
9.99604e-05
2.80628e-08
9.99477e-05
2.68733e-08
9.99383e-05
2.07085e-08
9.99339e-05
1.10491e-08
9.99358e-05
-7.49756e-10
9.99443e-05
-1.363e-08
9.99598e-05
-2.68586e-08
9.99823e-05
-4.00038e-08
0.000100011
-5.28625e-08
0.000100047
-6.53755e-08
0.000100089
-7.75679e-08
0.000100138
-8.94956e-08
0.000100192
-1.01213e-07
0.000100253
-1.12766e-07
0.000100319
-1.24173e-07
0.000100392
-1.35437e-07
0.00010047
-1.46545e-07
0.000100554
-1.57469e-07
0.000100644
-1.68169e-07
0.000100739
-1.78603e-07
0.00010084
-1.8872e-07
0.000100945
-1.98466e-07
0.000101056
-2.07784e-07
0.000101171
-2.16611e-07
0.00010129
-2.24885e-07
0.000101414
-2.32533e-07
0.000101541
-2.39482e-07
0.000101671
-2.45652e-07
0.000101804
-2.50958e-07
0.000101939
-2.55309e-07
0.000102077
-2.58604e-07
0.000102215
-2.60734e-07
0.000102353
-2.61584e-07
0.000102492
-2.61026e-07
0.000102629
-2.58919e-07
0.000102764
-2.55112e-07
0.000102897
-2.49434e-07
0.000103025
-2.41699e-07
0.000103148
-2.31695e-07
0.000103265
-2.19186e-07
0.000103374
-2.03905e-07
0.000103473
-1.85547e-07
0.000103561
-1.63758e-07
0.000103636
-1.38129e-07
0.000103696
-1.08185e-07
0.000103737
-7.33623e-08
0.000103758
-3.29869e-08
0.000103755
1.37525e-08
0.000103724
6.78448e-08
0.000103661
1.30488e-07
0.00010356
2.03161e-07
0.000103417
2.8772e-07
0.000103223
3.86505e-07
0.00010297
5.02516e-07
0.000102648
6.39642e-07
0.000102243
8.02999e-07
0.000101739
9.99415e-07
0.000101116
1.23816e-06
0.000100347
1.53199e-06
9.93976e-05
1.89881e-06
9.82229e-05
2.3641e-06
9.67621e-05
2.96463e-06
9.49346e-05
3.75397e-06
9.26333e-05
4.81022e-06
8.97215e-05
6.24505e-06
8.60412e-05
8.21108e-06
8.14647e-05
1.09039e-05
7.61259e-05
1.44931e-05
1.85732e-05
7.17197e-05
0.000106601
-7.06902e-08
0.000106645
-1.24715e-07
0.000106703
-1.61194e-07
0.000106767
-1.78874e-07
0.000106831
-1.78363e-07
0.000106889
-1.61124e-07
0.000106936
-1.30461e-07
0.00010697
-9.15421e-08
0.000106989
-5.04599e-08
0.000106995
-1.30138e-08
0.00010699
1.64017e-08
0.000106979
3.53753e-08
0.000106965
4.34853e-08
0.000106951
4.18456e-08
0.000106941
3.24785e-08
0.000106936
1.76695e-08
0.000106937
-4.90855e-10
0.000106946
-2.0347e-08
0.000106961
-4.07642e-08
0.000106985
-6.1067e-08
0.000107015
-8.09309e-08
0.000107052
-1.00262e-07
0.000107096
-1.19094e-07
0.000107147
-1.37509e-07
0.000107204
-1.55594e-07
0.000107267
-1.73409e-07
0.000107337
-1.90994e-07
0.000107413
-2.08348e-07
0.000107495
-2.25451e-07
0.000107583
-2.42258e-07
0.000107677
-2.58713e-07
0.000107777
-2.74745e-07
0.000107882
-2.90279e-07
0.000107993
-3.0523e-07
0.000108109
-3.19509e-07
0.000108229
-3.33021e-07
0.000108354
-3.45666e-07
0.000108483
-3.57337e-07
0.000108616
-3.67916e-07
0.000108752
-3.77284e-07
0.00010889
-3.85308e-07
0.000109031
-3.91846e-07
0.000109174
-3.96743e-07
0.000109318
-3.99834e-07
0.000109462
-4.00937e-07
0.000109606
-3.99859e-07
0.000109748
-3.96383e-07
0.000109888
-3.90276e-07
0.000110025
-3.81278e-07
0.000110157
-3.691e-07
0.000110283
-3.53424e-07
0.000110403
-3.33887e-07
0.000110514
-3.10082e-07
0.000110615
-2.81546e-07
0.000110704
-2.47742e-07
0.000110779
-2.08055e-07
0.000110838
-1.61762e-07
0.000110877
-1.08016e-07
0.000110895
-4.58099e-08
0.000110888
2.60729e-08
0.000110852
1.09092e-07
0.000110782
2.05013e-07
0.000110674
3.1601e-07
0.000110522
4.44777e-07
0.000110319
5.94695e-07
0.000110056
7.70045e-07
0.000109724
9.76312e-07
0.000109312
1.2206e-06
0.000108804
1.51223e-06
0.000108183
1.86355e-06
0.000107429
2.29114e-06
0.000106515
2.81746e-06
0.00010541
3.47311e-06
0.00010408
4.29995e-06
0.000102484
5.35466e-06
0.000100586
6.71214e-06
9.83706e-05
8.46508e-06
9.58741e-05
1.0712e-05
9.32672e-05
1.35153e-05
9.10037e-05
1.6761e-05
1.97541e-05
8.98271e-05
0.000114067
-9.67021e-08
0.000114114
-1.71872e-07
0.000114176
-2.2237e-07
0.000114244
-2.47069e-07
0.000114313
-2.46686e-07
0.000114375
-2.23226e-07
0.000114427
-1.81212e-07
0.000114464
-1.27713e-07
0.000114485
-7.10995e-08
0.000114492
-1.9343e-08
0.000114488
2.14798e-08
0.000114477
4.80122e-08
0.000114462
5.96203e-08
0.000114447
5.78067e-08
0.000114436
4.53075e-08
0.00011443
2.52579e-08
0.000114431
5.34006e-10
0.000114439
-2.65858e-08
0.000114455
-5.45245e-08
0.000114479
-8.23369e-08
0.00011451
-1.09562e-07
0.000114548
-1.36062e-07
0.000114593
-1.61869e-07
0.000114646
-1.87094e-07
0.000114705
-2.1185e-07
0.000114771
-2.36221e-07
0.000114843
-2.60253e-07
0.000114922
-2.83951e-07
0.000115007
-3.07284e-07
0.000115099
-3.30194e-07
0.000115196
-3.52599e-07
0.0001153
-3.74406e-07
0.000115409
-3.95511e-07
0.000115524
-4.15799e-07
0.000115644
-4.35144e-07
0.000115768
-4.53422e-07
0.000115898
-4.70489e-07
0.000116031
-4.862e-07
0.000116168
-5.00399e-07
0.000116308
-5.12916e-07
0.000116451
-5.23574e-07
0.000116596
-5.32174e-07
0.000116743
-5.38508e-07
0.000116891
-5.42351e-07
0.000117038
-5.43456e-07
0.000117185
-5.41557e-07
0.00011733
-5.36362e-07
0.000117472
-5.27553e-07
0.000117611
-5.1478e-07
0.000117745
-4.97652e-07
0.000117873
-4.75739e-07
0.000117993
-4.48554e-07
0.000118103
-4.15551e-07
0.000118203
-3.76109e-07
0.00011829
-3.29516e-07
0.000118363
-2.7495e-07
0.000118418
-2.1146e-07
0.000118453
-1.37925e-07
0.000118466
-5.30242e-08
0.000118452
4.48236e-08
0.000118409
1.575e-07
0.000118332
2.87268e-07
0.000118217
4.36883e-07
0.000118057
6.09734e-07
0.000117847
8.10015e-07
0.000117579
1.04296e-06
0.000117246
1.31516e-06
0.000116836
1.63498e-06
0.000116341
2.0131e-06
0.000115746
2.46329e-06
0.000115039
3.00333e-06
0.000114205
3.65627e-06
0.000113231
4.45181e-06
0.000112108
5.42776e-06
0.000110837
6.63081e-06
0.000109439
8.11499e-06
0.000107975
9.93417e-06
0.00010657
1.21214e-05
0.000105449
1.46415e-05
0.000104922
1.72926e-05
1.95379e-05
0.000105143
0.000122056
-1.24041e-07
0.000122106
-2.21954e-07
0.000122172
-2.87545e-07
0.000122245
-3.19998e-07
0.000122319
-3.20079e-07
0.000122387
-2.90348e-07
0.000122443
-2.36574e-07
0.000122483
-1.67796e-07
0.000122508
-9.47509e-08
0.000122517
-2.77045e-08
0.000122514
2.54795e-08
0.000122503
6.03994e-08
0.000122488
7.61551e-08
0.000122473
7.45932e-08
0.000122461
5.91919e-08
0.000122454
3.39442e-08
0.000122454
2.55344e-09
0.000122461
-3.2038e-08
0.000122477
-6.77739e-08
0.0001225
-1.03411e-07
0.000122531
-1.38332e-07
0.00012257
-1.72328e-07
0.000122617
-2.05431e-07
0.00012267
-2.37768e-07
0.000122731
-2.69472e-07
0.000122799
-3.00653e-07
0.000122873
-3.31366e-07
0.000122955
-3.61617e-07
0.000123042
-3.91365e-07
0.000123136
-4.20535e-07
0.000123237
-4.49027e-07
0.000123343
-4.76719e-07
0.000123455
-5.03477e-07
0.000123573
-5.29152e-07
0.000123696
-5.53589e-07
0.000123824
-5.76621e-07
0.000123956
-5.98069e-07
0.000124093
-6.17747e-07
0.000124232
-6.3545e-07
0.000124376
-6.50968e-07
0.000124521
-6.64066e-07
0.000124669
-6.74498e-07
0.000124817
-6.81997e-07
0.000124967
-6.86273e-07
0.000125116
-6.87016e-07
0.000125263
-6.83886e-07
0.000125409
-6.76518e-07
0.000125551
-6.64506e-07
0.00012569
-6.47409e-07
0.000125822
-6.24741e-07
0.000125948
-5.95957e-07
0.000126066
-5.60454e-07
0.000126173
-5.17551e-07
0.00012627
-4.6648e-07
0.000126352
-4.06362e-07
0.000126419
-3.36189e-07
0.000126468
-2.548e-07
0.000126497
-1.60837e-07
0.000126502
-5.27061e-08
0.000126481
7.14761e-08
0.000126431
2.13924e-07
0.000126346
3.7728e-07
0.000126224
5.64726e-07
0.000126059
7.80115e-07
0.000125847
1.02814e-06
0.000125581
1.31454e-06
0.000125255
1.64639e-06
0.000124863
2.0324e-06
0.000124399
2.48339e-06
0.000123855
3.01273e-06
0.000123226
3.63693e-06
0.000122512
4.37623e-06
0.000121714
5.25492e-06
0.000120846
6.30127e-06
0.000119936
7.5461e-06
0.000119037
9.01863e-06
0.00011824
1.07371e-05
0.000117676
1.26902e-05
0.000117518
1.48043e-05
0.000117922
1.68941e-05
1.86131e-05
0.000118851
0.000130605
-1.52784e-07
0.000130658
-2.75057e-07
0.000130728
-3.56912e-07
0.000130806
-3.97967e-07
0.000130886
-3.98998e-07
0.000130959
-3.63101e-07
0.00013102
-2.97313e-07
0.000131066
-2.12666e-07
0.000131095
-1.22345e-07
0.000131107
-3.90035e-08
0.000131106
2.75881e-08
0.000131096
7.18757e-08
0.000131081
9.26088e-08
0.000131065
9.19351e-08
0.000131052
7.40391e-08
0.000131044
4.37989e-08
0.000131043
5.7639e-09
0.00013105
-3.64111e-08
0.000131064
-8.01547e-08
0.000131087
-1.23887e-07
0.000131119
-1.66797e-07
0.000131158
-2.08597e-07
0.000131205
-2.49289e-07
0.000131259
-2.89011e-07
0.000131321
-3.27917e-07
0.00013139
-3.66129e-07
0.000131466
-4.03715e-07
0.000131549
-4.40678e-07
0.000131638
-4.76973e-07
0.000131734
-5.12503e-07
0.000131837
-5.47149e-07
0.000131945
-5.8076e-07
0.000132059
-6.13171e-07
0.000132179
-6.44204e-07
0.000132304
-6.73665e-07
0.000132433
-7.01348e-07
0.000132567
-7.27038e-07
0.000132705
-7.50499e-07
0.000132847
-7.71491e-07
0.000132991
-7.89746e-07
0.000133137
-8.04984e-07
0.000133285
-8.16903e-07
0.000133434
-8.25178e-07
0.000133583
-8.29457e-07
0.000133731
-8.29365e-07
0.000133877
-8.24492e-07
0.000134021
-8.14394e-07
0.000134161
-7.98588e-07
0.000134296
-7.76544e-07
0.000134425
-7.47679e-07
0.000134546
-7.1135e-07
0.000134659
-6.66842e-07
0.000134761
-6.13353e-07
0.00013485
-5.49981e-07
0.000134926
-4.75706e-07
0.000134985
-3.89363e-07
0.000135026
-2.89616e-07
0.000135046
-1.74921e-07
0.000135043
-4.34778e-08
0.000135014
1.06806e-07
0.000134956
2.78359e-07
0.000134865
4.74047e-07
0.000134739
6.97265e-07
0.000134573
9.52052e-07
0.000134364
1.24322e-06
0.000134108
1.57651e-06
0.000133801
1.9588e-06
0.000133441
2.39827e-06
0.000133026
2.90469e-06
0.000132555
3.48954e-06
0.000132031
4.16626e-06
0.000131463
4.9501e-06
0.000130866
5.85782e-06
0.000130267
6.90657e-06
0.000129707
8.11158e-06
0.000129249
9.48177e-06
0.00012898
1.1012e-05
0.000129005
1.26706e-05
0.000129432
1.43824e-05
0.000130322
1.60095e-05
1.73457e-05
0.000131595
0.000139753
-1.82999e-07
0.000139809
-3.3128e-07
0.000139883
-4.30664e-07
0.000139967
-4.81299e-07
0.000140052
-4.83933e-07
0.000140132
-4.42168e-07
0.0001402
-3.6429e-07
0.000140251
-2.63342e-07
0.000140285
-1.54977e-07
0.000140301
-5.43306e-08
0.000140303
2.68028e-08
0.000140295
8.16037e-08
0.000140281
1.08351e-07
0.000140265
1.09417e-07
0.000140251
8.96538e-08
0.000140242
5.48112e-08
0.00014024
1.03114e-08
0.000140246
-3.94454e-08
0.000140259
-9.13225e-08
0.000140281
-1.43359e-07
0.000140312
-1.94518e-07
0.000140351
-2.44392e-07
0.000140398
-2.92944e-07
0.000140452
-3.40297e-07
0.000140515
-3.8662e-07
0.000140584
-4.32049e-07
0.000140661
-4.76654e-07
0.000140745
-5.20441e-07
0.000140836
-5.6335e-07
0.000140933
-6.05274e-07
0.000141036
-6.46066e-07
0.000141146
-6.85552e-07
0.000141261
-7.23536e-07
0.000141381
-7.59803e-07
0.000141507
-7.94124e-07
0.000141637
-8.26255e-07
0.000141772
-8.55939e-07
0.000141909
-8.829e-07
0.00014205
-9.06847e-07
0.000142194
-9.27468e-07
0.000142339
-9.4443e-07
0.000142485
-9.57378e-07
0.000142632
-9.65929e-07
0.000142778
-9.69673e-07
0.000142923
-9.6817e-07
0.000143066
-9.60942e-07
0.000143205
-9.47476e-07
0.00014334
-9.27211e-07
0.00014347
-8.99539e-07
0.000143592
-8.63791e-07
0.000143707
-8.19236e-07
0.000143811
-7.6506e-07
0.000143905
-7.00363e-07
0.000143986
-6.24137e-07
0.000144052
-5.35249e-07
0.000144101
-4.32418e-07
0.000144132
-3.14191e-07
0.000144143
-1.78903e-07
0.000144131
-2.46387e-08
0.000144093
1.50789e-07
0.000144028
3.49877e-07
0.000143933
5.7553e-07
0.000143806
8.3112e-07
0.000143644
1.12056e-06
0.000143445
1.44839e-06
0.000143208
1.81988e-06
0.000142932
2.24108e-06
0.000142618
2.71891e-06
0.000142268
3.26123e-06
0.000141887
3.87671e-06
0.000141485
4.57474e-06
0.000141076
5.36497e-06
0.000140683
6.25656e-06
0.000140339
7.25684e-06
0.000140088
8.36911e-06
0.000139986
9.58923e-06
0.000140103
1.09007e-05
0.000140512
1.22679e-05
0.000141271
1.36295e-05
0.000142393
1.48932e-05
1.59419e-05
0.000143802
0.000149541
-2.14759e-07
0.000149601
-3.9072e-07
0.000149679
-5.09001e-07
0.000149769
-5.70316e-07
0.000149861
-5.75382e-07
0.000149947
-5.28263e-07
0.000150022
-4.38443e-07
0.000150081
-3.20934e-07
0.000150121
-1.93874e-07
0.000150143
-7.49402e-08
0.000150149
2.19526e-08
0.000150144
8.8568e-08
0.000150131
1.22588e-07
0.000150116
1.26487e-07
0.000150102
1.0572e-07
0.000150092
6.68804e-08
0.000150088
1.62733e-08
0.000150092
-4.09233e-08
0.000150105
-1.00957e-07
0.000150125
-1.61436e-07
0.000150155
-2.21047e-07
0.000150193
-2.79231e-07
0.00015024
-3.35872e-07
0.000150294
-3.91071e-07
0.000150356
-4.44995e-07
0.000150426
-4.9778e-07
0.000150503
-5.49502e-07
0.000150587
-6.00162e-07
0.000150678
-6.49693e-07
0.000150775
-6.97972e-07
0.000150879
-7.44827e-07
0.000150988
-7.9006e-07
0.000151103
-8.33441e-07
0.000151224
-8.74724e-07
0.000151349
-9.13642e-07
0.000151478
-9.49914e-07
0.000151611
-9.83239e-07
0.000151747
-1.0133e-06
0.000151886
-1.03976e-06
0.000152027
-1.06226e-06
0.000152169
-1.08042e-06
0.000152312
-1.09383e-06
0.000152455
-1.10206e-06
0.000152596
-1.10463e-06
0.000152735
-1.10105e-06
0.000152872
-1.09078e-06
0.000153004
-1.07324e-06
0.000153132
-1.0478e-06
0.000153253
-1.0138e-06
0.000153366
-9.70486e-07
0.000153471
-9.17057e-07
0.000153566
-8.52631e-07
0.000153649
-7.76232e-07
0.000153718
-6.8678e-07
0.000153773
-5.83074e-07
0.000153811
-4.63772e-07
0.000153832
-3.27367e-07
0.000153832
-1.72158e-07
0.00015381
3.77539e-09
0.000153766
2.02583e-07
0.000153696
4.26681e-07
0.0001536
6.78813e-07
0.000153476
9.62086e-07
0.000153323
1.28e-06
0.000153142
1.63649e-06
0.000152933
2.03592e-06
0.000152698
2.4831e-06
0.00015244
2.98322e-06
0.000152166
3.54176e-06
0.000151885
4.16429e-06
0.000151611
4.85609e-06
0.000151361
5.6217e-06
0.00015116
6.46402e-06
0.00015104
7.38326e-06
0.00015104
8.37524e-06
0.000151206
9.4294e-06
0.000151587
1.05261e-05
0.000152227
1.16342e-05
0.000153154
1.27087e-05
0.000154361
1.36918e-05
1.45183e-05
0.000155791
0.000160015
-2.48118e-07
0.000160078
-4.53463e-07
0.000160161
-5.92089e-07
0.000160257
-6.65311e-07
0.000160356
-6.73826e-07
0.00016045
-6.22087e-07
0.000160533
-5.2071e-07
0.0001606
-3.86594e-07
0.000160648
-2.4033e-07
0.000160676
-1.0216e-07
0.000160688
1.17635e-08
0.000160686
9.16423e-08
0.000160676
1.34398e-07
0.000160662
1.42473e-07
0.000160648
1.21815e-07
0.000160638
7.98109e-08
0.000160633
2.36471e-08
0.000160635
-4.06859e-08
0.000160646
-1.08777e-07
0.000160665
-1.77743e-07
0.000160694
-2.45943e-07
0.000160731
-3.12613e-07
0.000160776
-3.77533e-07
0.000160829
-4.40749e-07
0.000160891
-5.02406e-07
0.00016096
-5.62637e-07
0.000161036
-6.21517e-07
0.00016112
-6.79041e-07
0.00016121
-7.35132e-07
0.000161307
-7.89647e-07
0.00016141
-8.42399e-07
0.000161518
-8.9316e-07
0.000161632
-9.41671e-07
0.000161751
-9.87652e-07
0.000161874
-1.0308e-06
0.000162
-1.0708e-06
0.000162131
-1.10731e-06
0.000162264
-1.13996e-06
0.000162399
-1.16838e-06
0.000162535
-1.19217e-06
0.000162672
-1.2109e-06
0.000162809
-1.2241e-06
0.000162945
-1.2313e-06
0.00016308
-1.23198e-06
0.000163211
-1.22559e-06
0.000163339
-1.21153e-06
0.000163462
-1.18918e-06
0.000163579
-1.15786e-06
0.00016369
-1.11683e-06
0.000163792
-1.06532e-06
0.000163885
-1.00246e-06
0.000163967
-9.27337e-07
0.000164037
-8.3893e-07
0.000164094
-7.36134e-07
0.000164136
-6.17731e-07
0.000164162
-4.8238e-07
0.000164171
-3.28597e-07
0.000164161
-1.54742e-07
0.000164131
4.10021e-08
0.000164081
2.60614e-07
0.000164009
5.06272e-07
0.000163915
7.80381e-07
0.000163799
1.08557e-06
0.000163661
1.42471e-06
0.000163504
1.80084e-06
0.00016333
2.21721e-06
0.000163144
2.67713e-06
0.00016295
3.1839e-06
0.000162759
3.74061e-06
0.00016258
4.34991e-06
0.00016243
5.01362e-06
0.000162326
5.73225e-06
0.000162293
6.50441e-06
0.000162357
7.32597e-06
0.00016255
8.18917e-06
0.000162905
9.0816e-06
0.000163453
9.98515e-06
0.000164218
1.08754e-05
0.000165212
1.17217e-05
0.000166421
1.24889e-05
1.31412e-05
0.000167805
0.000171222
-2.83119e-07
0.000171289
-5.19564e-07
0.000171377
-6.80067e-07
0.000171479
-7.66537e-07
0.000171585
-7.79679e-07
0.000171688
-7.24275e-07
0.00017178
-6.11953e-07
0.000171856
-4.61403e-07
0.000171913
-2.95583e-07
0.000171949
-1.37315e-07
0.000171968
-5.07185e-09
0.000171971
8.96366e-08
0.000171965
1.42783e-07
0.000171953
1.566e-07
0.000171939
1.37409e-07
0.000171928
9.33139e-08
0.000171922
3.23548e-08
0.000171923
-3.86385e-08
0.000171932
-1.14543e-07
0.00017195
-1.91929e-07
0.000171976
-2.6876e-07
0.000172011
-3.44024e-07
0.000172055
-4.17344e-07
0.000172107
-4.88686e-07
0.000172167
-5.58153e-07
0.000172235
-6.25862e-07
0.00017231
-6.91874e-07
0.000172392
-7.56178e-07
0.000172481
-8.18686e-07
0.000172576
-8.79239e-07
0.000172676
-9.37631e-07
0.000172783
-9.93607e-07
0.000172894
-1.04688e-06
0.000173009
-1.09714e-06
0.000173129
-1.14405e-06
0.000173252
-1.18726e-06
0.000173377
-1.22638e-06
0.000173505
-1.26101e-06
0.000173634
-1.29075e-06
0.000173764
-1.31513e-06
0.000173894
-1.3337e-06
0.000174023
-1.34595e-06
0.00017415
-1.35136e-06
0.000174275
-1.34936e-06
0.000174397
-1.33938e-06
0.000174513
-1.32076e-06
0.000174625
-1.29286e-06
0.00017473
-1.25496e-06
0.000174827
-1.20629e-06
0.000174915
-1.14604e-06
0.000174994
-1.07335e-06
0.000175062
-9.87272e-07
0.000175118
-8.86807e-07
0.000175161
-7.70864e-07
0.000175189
-6.3827e-07
0.000175203
-4.87752e-07
0.0001752
-3.17933e-07
0.000175181
-1.27324e-07
0.000175144
8.56825e-08
0.00017509
3.22767e-07
0.000175018
5.85741e-07
0.00017493
8.76527e-07
0.000174827
1.19713e-06
0.00017471
1.54962e-06
0.000174582
1.93606e-06
0.000174449
2.35845e-06
0.000174315
2.81861e-06
0.000174189
3.31805e-06
0.00017408
3.8578e-06
0.000173999
4.43812e-06
0.000173962
5.05826e-06
0.000173986
5.71609e-06
0.00017409
6.40773e-06
0.000174296
7.12707e-06
0.000174627
7.86541e-06
0.000175105
8.61109e-06
0.000175748
9.3493e-06
0.000176569
1.00623e-05
0.000177568
1.07299e-05
0.000178732
1.13312e-05
1.18468e-05
0.000180034
0.000183215
-3.19783e-07
0.000183284
-5.8905e-07
0.000183378
-7.73002e-07
0.000183486
-8.74146e-07
0.0001836
-8.9323e-07
0.000183712
-8.35294e-07
0.000183814
-7.12864e-07
0.0001839
-5.46262e-07
0.000183966
-3.60715e-07
0.000184012
-1.81593e-07
0.000184038
-2.97578e-08
0.000184048
8.14075e-08
0.000184046
1.46735e-07
0.000184037
1.68059e-07
0.000184025
1.51911e-07
0.000184014
1.07017e-07
0.000184007
4.22418e-08
0.000184006
-3.47415e-08
0.000184013
-1.18053e-07
0.000184028
-2.03653e-07
0.000184052
-2.89049e-07
0.000184085
-3.72915e-07
0.000184127
-4.54672e-07
0.000184177
-5.3417e-07
0.000184235
-6.11445e-07
0.0001843
-6.86579e-07
0.000184373
-7.59616e-07
0.000184453
-8.30533e-07
0.000184539
-8.99226e-07
0.000184631
-9.65528e-07
0.000184728
-1.0292e-06
0.000184831
-1.08998e-06
0.000184938
-1.14755e-06
0.000185049
-1.20157e-06
0.000185163
-1.25166e-06
0.00018528
-1.29745e-06
0.000185399
-1.33852e-06
0.00018552
-1.37443e-06
0.000185641
-1.40472e-06
0.000185762
-1.42893e-06
0.000185883
-1.44654e-06
0.000186001
-1.45702e-06
0.000186118
-1.45982e-06
0.000186231
-1.45434e-06
0.000186339
-1.43997e-06
0.000186443
-1.41606e-06
0.00018654
-1.38191e-06
0.00018663
-1.33681e-06
0.000186712
-1.27998e-06
0.000186785
-1.21063e-06
0.000186848
-1.12789e-06
0.0001869
-1.03086e-06
0.00018694
-9.18597e-07
0.000186968
-7.90073e-07
0.000186983
-6.44219e-07
0.000186983
-4.79901e-07
0.00018697
-2.95925e-07
0.000186942
-9.1036e-08
0.0001869
1.36064e-07
0.000186845
3.86675e-07
0.000186777
6.62144e-07
0.000186699
9.63817e-07
0.000186611
1.293e-06
0.000186518
1.65092e-06
0.000186424
2.03865e-06
0.000186334
2.45701e-06
0.000186255
2.90651e-06
0.000186194
3.38718e-06
0.000186161
3.89841e-06
0.000186169
4.43884e-06
0.000186229
5.00607e-06
0.000186357
5.59656e-06
0.000186567
6.20536e-06
0.000186876
6.826e-06
0.000187299
7.45035e-06
0.00018785
8.06864e-06
0.000188537
8.6696e-06
0.000189366
9.24087e-06
0.000190334
9.76957e-06
0.00019143
1.02434e-05
1.06519e-05
0.000192632
0.000196047
-3.5811e-07
0.00019612
-6.61892e-07
0.000196218
-8.70884e-07
0.000196333
-9.8817e-07
0.000196455
-1.0146e-06
0.000196576
-9.55399e-07
0.000196688
-8.23859e-07
0.000196785
-6.41776e-07
0.000196862
-4.36505e-07
0.000196918
-2.35902e-07
0.000196953
-6.32797e-08
0.00019697
6.59731e-08
0.000196974
1.45348e-07
0.000196968
1.76071e-07
0.000196958
1.64717e-07
0.000196948
1.2052e-07
0.00019694
5.31037e-08
0.000196937
-2.90112e-08
0.000196942
-1.19133e-07
0.000196955
-2.12587e-07
0.000196976
-3.06329e-07
0.000197006
-3.98673e-07
0.000197044
-4.88788e-07
0.000197091
-5.76365e-07
0.000197146
-6.61344e-07
0.000197209
-7.43754e-07
0.000197278
-8.23612e-07
0.000197354
-9.00873e-07
0.000197436
-9.75421e-07
0.000197524
-1.04707e-06
0.000197616
-1.11558e-06
0.000197713
-1.18064e-06
0.000197815
-1.24193e-06
0.000197919
-1.29907e-06
0.000198026
-1.35168e-06
0.000198135
-1.39933e-06
0.000198246
-1.44157e-06
0.000198357
-1.47796e-06
0.000198468
-1.508e-06
0.000198578
-1.53118e-06
0.000198687
-1.54698e-06
0.000198793
-1.55485e-06
0.000198896
-1.5542e-06
0.000198994
-1.54444e-06
0.000199088
-1.52493e-06
0.000199175
-1.49501e-06
0.000199256
-1.45402e-06
0.000199329
-1.40123e-06
0.000199394
-1.3359e-06
0.00019945
-1.25727e-06
0.000199495
-1.16453e-06
0.000199531
-1.05686e-06
0.000199554
-9.33393e-07
0.000199567
-7.93243e-07
0.000199567
-6.35496e-07
0.000199556
-4.59216e-07
0.000199532
-2.63456e-07
0.000199498
-4.72584e-08
0.000199453
1.90298e-07
0.000199399
4.50075e-07
0.000199337
7.32913e-07
0.00019927
1.03956e-06
0.000199202
1.37061e-06
0.000199135
1.7265e-06
0.000199076
2.10741e-06
0.000199029
2.51318e-06
0.000199001
2.94325e-06
0.000199
3.39658e-06
0.000199036
3.8715e-06
0.000199118
4.36563e-06
0.000199257
4.8758e-06
0.000199464
5.39794e-06
0.000199751
5.92705e-06
0.000200129
6.45716e-06
0.000200606
6.98141e-06
0.000201191
7.49217e-06
0.000201888
7.98128e-06
0.000202697
8.44036e-06
0.000203613
8.86133e-06
0.000204627
9.23702e-06
9.5619e-06
0.000205725
0.000209778
-3.98068e-07
0.000209854
-7.38006e-07
0.000209957
-9.73599e-07
0.000210078
-1.10849e-06
0.000210208
-1.14368e-06
0.000210338
-1.08454e-06
0.00021046
-9.44996e-07
0.000210568
-7.48139e-07
0.000210656
-5.233e-07
0.000210723
-3.0075e-07
0.000210768
-1.06261e-07
0.000210793
4.26375e-08
0.000210803
1.37916e-07
0.000210802
1.79991e-07
0.000210794
1.75294e-07
0.000210784
1.33435e-07
0.000210775
6.47399e-08
0.000210771
-2.14443e-08
0.000210774
-1.17615e-07
0.000210783
-2.18355e-07
0.000210801
-3.20062e-07
0.000210828
-4.20604e-07
0.000210863
-5.18851e-07
0.000210906
-6.1429e-07
0.000210956
-7.0674e-07
0.000211014
-7.96153e-07
0.000211079
-8.82504e-07
0.00021115
-9.65723e-07
0.000211226
-1.04568e-06
0.000211308
-1.12217e-06
0.000211394
-1.19493e-06
0.000211484
-1.26365e-06
0.000211577
-1.32797e-06
0.000211673
-1.38751e-06
0.000211771
-1.44184e-06
0.00021187
-1.49054e-06
0.000211969
-1.53312e-06
0.000212068
-1.56911e-06
0.000212167
-1.59801e-06
0.000212263
-1.61929e-06
0.000212357
-1.63241e-06
0.000212448
-1.6368e-06
0.000212535
-1.63189e-06
0.000212616
-1.61708e-06
0.000212692
-1.59174e-06
0.000212762
-1.55524e-06
0.000212824
-1.50693e-06
0.000212878
-1.44614e-06
0.000212924
-1.37218e-06
0.000212961
-1.28436e-06
0.000212988
-1.18196e-06
0.000213005
-1.06427e-06
0.000213012
-9.3057e-07
0.000213009
-7.80143e-07
0.000212995
-6.12277e-07
0.000212972
-4.26283e-07
0.00021294
-2.21518e-07
0.0002129
2.66655e-09
0.000212853
2.46749e-07
0.000212802
5.11172e-07
0.000212748
7.96257e-07
0.000212696
1.10218e-06
0.000212647
1.42891e-06
0.000212607
1.77619e-06
0.000212581
2.14349e-06
0.000212574
2.52991e-06
0.000212592
2.93416e-06
0.000212644
3.35451e-06
0.000212736
3.7887e-06
0.000212877
4.23393e-06
0.000213076
4.68682e-06
0.00021334
5.1434e-06
0.000213677
5.59916e-06
0.000214094
6.04904e-06
0.000214597
6.48762e-06
0.000215189
6.9092e-06
0.000215871
7.30807e-06
0.000216642
7.67867e-06
0.000217496
8.016e-06
0.000218425
8.31592e-06
8.57562e-06
0.00021942
0.00022447
-4.3958e-07
0.00022455
-8.17238e-07
0.000224658
-1.08091e-06
0.000224784
-1.23481e-06
0.000224922
-1.28012e-06
0.00022506
-1.22235e-06
0.000225193
-1.07592e-06
0.000225311
-8.65075e-07
0.00022541
-6.2095e-07
0.000225487
-3.76135e-07
0.000225542
-1.58865e-07
0.000225576
1.11067e-08
0.000225592
1.24054e-07
0.000225595
1.79401e-07
0.00022559
1.83263e-07
0.000225581
1.45487e-07
0.000225573
7.70128e-08
0.000225567
-1.20103e-08
0.000225567
-1.13252e-07
0.000225573
-2.20527e-07
0.000225587
-3.29614e-07
0.000225609
-4.37884e-07
0.000225639
-5.43854e-07
0.000225677
-6.46772e-07
0.000225722
-7.46298e-07
0.000225774
-8.42291e-07
0.000225833
-9.34664e-07
0.000225897
-1.02332e-06
0.000225966
-1.1081e-06
0.000226039
-1.18879e-06
0.000226117
-1.26511e-06
0.000226197
-1.33674e-06
0.00022628
-1.4033e-06
0.000226365
-1.4644e-06
0.000226451
-1.5196e-06
0.000226537
-1.56844e-06
0.000226623
-1.61045e-06
0.000226707
-1.64512e-06
0.00022679
-1.67196e-06
0.00022687
-1.69043e-06
0.000226947
-1.7e-06
0.00022702
-1.70009e-06
0.000227088
-1.69016e-06
0.00022715
-1.66963e-06
0.000227206
-1.63789e-06
0.000227255
-1.59438e-06
0.000227296
-1.53847e-06
0.00022733
-1.46958e-06
0.000227355
-1.38711e-06
0.000227371
-1.29046e-06
0.000227379
-1.17904e-06
0.000227377
-1.0523e-06
0.000227366
-9.09688e-07
0.000227347
-7.50688e-07
0.00022732
-5.74829e-07
0.000227286
-3.81695e-07
0.000227246
-1.70941e-07
0.000227202
5.76915e-08
0.000227155
3.04317e-07
0.000227107
5.68948e-07
0.000227063
8.51444e-07
0.000227024
1.15149e-06
0.000226995
1.46854e-06
0.000226979
1.80181e-06
0.000226983
2.15025e-06
0.000227011
2.51248e-06
0.000227068
2.88679e-06
0.000227162
3.2711e-06
0.000227298
3.66296e-06
0.000227482
4.05954e-06
0.000227721
4.45764e-06
0.000228021
4.85372e-06
0.000228386
5.24397e-06
0.000228821
5.62437e-06
0.000229327
5.99081e-06
0.000229907
6.33918e-06
0.000230559
6.66556e-06
0.000231281
6.96635e-06
0.000232068
7.23847e-06
0.000232913
7.47959e-06
7.68839e-06
0.00023381
0.000240192
-4.82538e-07
0.000240274
-8.99342e-07
0.000240386
-1.19245e-06
0.000240518
-1.36663e-06
0.000240663
-1.42331e-06
0.000240809
-1.36812e-06
0.000240951
-1.21587e-06
0.000241079
-9.91816e-07
0.000241188
-7.28767e-07
0.000241275
-4.61511e-07
0.000241339
-2.20723e-07
0.000241381
-2.84433e-08
0.000241404
1.03784e-07
0.000241412
1.74223e-07
0.00024141
1.88509e-07
0.000241403
1.56596e-07
0.000241393
8.99484e-08
0.000241386
-5.33421e-10
0.000241383
-1.05677e-07
0.000241385
-2.18534e-07
0.000241394
-3.34201e-07
0.000241411
-4.49516e-07
0.000241435
-5.62596e-07
0.000241467
-6.72413e-07
0.000241505
-7.78437e-07
0.000241549
-8.80409e-07
0.000241599
-9.78173e-07
0.000241654
-1.07158e-06
0.000241714
-1.16046e-06
0.000241777
-1.24458e-06
0.000241843
-1.32364e-06
0.000241912
-1.39731e-06
0.000241982
-1.46522e-06
0.000242053
-1.52695e-06
0.000242124
-1.58206e-06
0.000242194
-1.63008e-06
0.000242263
-1.67055e-06
0.00024233
-1.70297e-06
0.000242395
-1.72682e-06
0.000242455
-1.7416e-06
0.000242512
-1.74677e-06
0.000242564
-1.74182e-06
0.00024261
-1.72621e-06
0.00024265
-1.6994e-06
0.000242683
-1.66086e-06
0.000242709
-1.61007e-06
0.000242728
-1.54651e-06
0.000242739
-1.46967e-06
0.000242742
-1.37907e-06
0.000242736
-1.27426e-06
0.000242723
-1.15479e-06
0.000242702
-1.02027e-06
0.000242674
-8.70375e-07
0.000242639
-7.04797e-07
0.000242599
-5.23323e-07
0.000242554
-3.25816e-07