/*--------------------------------*- C++ -*----------------------------------*\
| =========                 |                                                 |
| \\      /  F ield         | OpenFOAM: The Open Source CFD Toolbox           |
|  \\    /   O peration     | Version:  2106                                  |
|   \\  /    A nd           | Website:  www.openfoam.com                      |
|    \\/     M anipulation  |                                                 |
\*---------------------------------------------------------------------------*/
FoamFile
{
    version     2.0;
    format      ascii;
    arch        "LSB;label=32;scalar=64";
    class       volScalarField;
    location    "1.2";
    object      T;
}
// * * * * * * * * * * * * * * * * * * * * * * * * * * * * * * * * * * * * * //

dimensions      [0 0 0 1 0 0 0];

internalField   nonuniform List<scalar> 
12013
(
300
300.001
300.002
300.003
300.004
300.005
300.007
300.008
300.01
300.012
300.014
300.016
300.019
300.021
300.025
300.028
300.032
300.036
300.041
300.046
300.052
300.058
300.064
300.071
300.079
300.087
300.096
300.106
300.116
300.127
300.138
300.151
300.164
300.177
300.192
300.208
300.224
300.241
300.259
300.278
300.298
300.319
300.34
300.363
300.387
300.412
300.437
300.464
300.492
300.521
300.551
300.582
300.615
300.649
300.683
300.72
300.757
300.796
300.836
300.877
300.92
300.965
301.011
301.058
301.108
301.159
301.212
301.267
301.325
301.385
301.447
301.512
301.581
301.653
301.729
301.81
301.897
301.992
302.096
302.215
302.357
300
300.001
300.002
300.003
300.004
300.005
300.007
300.008
300.01
300.012
300.014
300.016
300.019
300.021
300.025
300.028
300.032
300.036
300.041
300.046
300.052
300.058
300.064
300.071
300.079
300.087
300.096
300.106
300.116
300.127
300.138
300.151
300.164
300.177
300.192
300.208
300.224
300.241
300.259
300.278
300.298
300.319
300.34
300.363
300.387
300.411
300.437
300.464
300.492
300.521
300.551
300.582
300.615
300.648
300.683
300.719
300.757
300.795
300.835
300.877
300.92
300.964
301.01
301.058
301.107
301.158
301.211
301.266
301.323
301.383
301.445
301.51
301.578
301.65
301.725
301.805
301.891
301.983
302.083
302.193
302.315
300
300.001
300.002
300.003
300.004
300.005
300.007
300.008
300.01
300.012
300.014
300.016
300.019
300.021
300.025
300.028
300.032
300.036
300.041
300.046
300.052
300.058
300.064
300.071
300.079
300.087
300.096
300.106
300.116
300.127
300.138
300.15
300.164
300.177
300.192
300.207
300.224
300.241
300.259
300.278
300.298
300.318
300.34
300.363
300.386
300.411
300.437
300.464
300.492
300.521
300.551
300.582
300.614
300.648
300.682
300.718
300.756
300.794
300.834
300.876
300.918
300.963
301.009
301.056
301.105
301.156
301.209
301.264
301.321
301.38
301.441
301.506
301.573
301.643
301.717
301.795
301.878
301.966
302.059
302.158
302.261
300
300.001
300.002
300.003
300.004
300.005
300.007
300.008
300.01
300.012
300.014
300.016
300.019
300.021
300.025
300.028
300.032
300.036
300.041
300.046
300.052
300.058
300.064
300.071
300.079
300.087
300.096
300.106
300.116
300.127
300.138
300.15
300.163
300.177
300.192
300.207
300.223
300.241
300.259
300.277
300.297
300.318
300.34
300.362
300.386
300.411
300.436
300.463
300.491
300.52
300.55
300.581
300.613
300.647
300.681
300.717
300.754
300.793
300.833
300.874
300.917
300.961
301.006
301.053
301.102
301.153
301.205
301.259
301.316
301.374
301.435
301.498
301.564
301.633
301.704
301.78
301.858
301.941
302.026
302.114
302.204
300
300.001
300.002
300.003
300.004
300.005
300.007
300.008
300.01
300.012
300.014
300.016
300.019
300.021
300.025
300.028
300.032
300.036
300.041
300.046
300.051
300.058
300.064
300.071
300.079
300.087
300.096
300.105
300.116
300.126
300.138
300.15
300.163
300.177
300.192
300.207
300.223
300.24
300.258
300.277
300.297
300.318
300.339
300.362
300.385
300.41
300.436
300.462
300.49
300.519
300.549
300.58
300.612
300.645
300.68
300.716
300.753
300.791
300.83
300.871
300.914
300.957
301.003
301.049
301.098
301.148
301.2
301.253
301.309
301.366
301.426
301.487
301.551
301.618
301.687
301.758
301.833
301.909
301.987
302.066
302.144
300
300.001
300.002
300.003
300.004
300.005
300.007
300.008
300.01
300.012
300.014
300.016
300.019
300.021
300.025
300.028
300.032
300.036
300.041
300.046
300.051
300.057
300.064
300.071
300.079
300.087
300.096
300.105
300.115
300.126
300.138
300.15
300.163
300.177
300.191
300.207
300.223
300.24
300.258
300.277
300.296
300.317
300.338
300.361
300.385
300.409
300.435
300.461
300.489
300.517
300.547
300.578
300.61
300.643
300.678
300.713
300.75
300.788
300.827
300.868
300.91
300.953
300.998
301.044
301.092
301.141
301.192
301.245
301.299
301.355
301.413
301.473
301.535
301.599
301.665
301.732
301.801
301.872
301.943
302.014
302.084
300
300.001
300.002
300.003
300.004
300.005
300.007
300.008
300.01
300.012
300.014
300.016
300.019
300.021
300.025
300.028
300.032
300.036
300.041
300.046
300.051
300.057
300.064
300.071
300.079
300.087
300.096
300.105
300.115
300.126
300.137
300.15
300.163
300.176
300.191
300.206
300.222
300.239
300.257
300.276
300.295
300.316
300.337
300.36
300.383
300.408
300.433
300.46
300.487
300.516
300.545
300.576
300.608
300.641
300.675
300.71
300.746
300.784
300.823
300.863
300.905
300.948
300.992
301.037
301.084
301.133
301.183
301.234
301.287
301.342
301.398
301.455
301.515
301.576
301.638
301.701
301.766
301.831
301.896
301.96
302.023
300
300.001
300.002
300.003
300.004
300.005
300.007
300.008
300.01
300.012
300.014
300.016
300.018
300.021
300.024
300.028
300.032
300.036
300.041
300.046
300.051
300.057
300.064
300.071
300.078
300.087
300.095
300.105
300.115
300.126
300.137
300.149
300.162
300.176
300.19
300.205
300.222
300.238
300.256
300.275
300.294
300.315
300.336
300.359
300.382
300.406
300.431
300.458
300.485
300.513
300.543
300.573
300.605
300.637
300.671
300.706
300.742
300.779
300.818
300.857
300.898
300.94
300.984
301.029
301.075
301.122
301.171
301.221
301.272
301.325
301.379
301.434
301.491
301.548
301.607
301.666
301.726
301.786
301.845
301.904
301.962
300
300.001
300.002
300.003
300.004
300.005
300.007
300.008
300.01
300.012
300.014
300.016
300.018
300.021
300.024
300.028
300.032
300.036
300.041
300.046
300.051
300.057
300.064
300.071
300.078
300.086
300.095
300.104
300.114
300.125
300.137
300.149
300.161
300.175
300.189
300.205
300.221
300.237
300.255
300.274
300.293
300.313
300.335
300.357
300.38
300.404
300.429
300.455
300.482
300.51
300.539
300.57
300.601
300.633
300.666
300.701
300.737
300.773
300.811
300.85
300.89
300.932
300.974
301.018
301.063
301.109
301.156
301.204
301.254
301.305
301.356
301.409
301.463
301.517
301.572
301.627
301.683
301.738
301.792
301.846
301.899
300
300.001
300.002
300.003
300.004
300.005
300.007
300.008
300.01
300.011
300.014
300.016
300.018
300.021
300.024
300.028
300.032
300.036
300.04
300.045
300.051
300.057
300.063
300.07
300.078
300.086
300.095
300.104
300.114
300.125
300.136
300.148
300.161
300.174
300.189
300.204
300.22
300.236
300.254
300.272
300.291
300.312
300.333
300.355
300.378
300.402
300.426
300.452
300.479
300.507
300.535
300.565
300.596
300.628
300.661
300.695
300.73
300.766
300.803
300.841
300.88
300.921
300.962
301.005
301.048
301.093
301.139
301.185
301.233
301.281
301.33
301.38
301.431
301.482
301.533
301.585
301.636
301.687
301.737
301.787
301.835
300
300.001
300.002
300.003
300.004
300.005
300.007
300.008
300.01
300.011
300.013
300.016
300.018
300.021
300.024
300.028
300.031
300.036
300.04
300.045
300.051
300.057
300.063
300.07
300.077
300.085
300.094
300.103
300.113
300.124
300.135
300.147
300.16
300.173
300.187
300.202
300.218
300.235
300.252
300.27
300.29
300.309
300.33
300.352
300.375
300.398
300.423
300.448
300.475
300.502
300.531
300.56
300.59
300.622
300.654
300.687
300.722
300.757
300.793
300.831
300.869
300.908
300.948
300.99
301.032
301.075
301.118
301.163
301.209
301.255
301.301
301.348
301.396
301.444
301.492
301.539
301.587
301.634
301.68
301.726
301.77
300
300.001
300.002
300.003
300.004
300.005
300.007
300.008
300.01
300.011
300.013
300.016
300.018
300.021
300.024
300.027
300.031
300.035
300.04
300.045
300.05
300.056
300.063
300.069
300.077
300.085
300.094
300.103
300.113
300.123
300.134
300.146
300.159
300.172
300.186
300.201
300.217
300.233
300.25
300.268
300.287
300.307
300.327
300.349
300.371
300.395
300.419
300.444
300.47
300.497
300.525
300.554
300.583
300.614
300.646
300.678
300.712
300.746
300.782
300.818
300.855
300.893
300.932
300.972
301.012
301.053
301.095
301.138
301.181
301.225
301.269
301.313
301.358
301.402
301.447
301.491
301.535
301.579
301.621
301.663
301.705
300
300.001
300.002
300.003
300.004
300.005
300.006
300.008
300.01
300.011
300.013
300.016
300.018
300.021
300.024
300.027
300.031
300.035
300.04
300.045
300.05
300.056
300.062
300.069
300.076
300.084
300.093
300.102
300.112
300.122
300.133
300.145
300.157
300.171
300.184
300.199
300.215
300.231
300.248
300.266
300.284
300.304
300.324
300.345
300.367
300.39
300.414
300.439
300.464
300.491
300.518
300.546
300.575
300.605
300.636
300.668
300.701
300.734
300.768
300.803
300.839
300.876
300.913
300.951
300.99
301.029
301.069
301.11
301.151
301.192
301.233
301.275
301.316
301.358
301.399
301.44
301.481
301.521
301.561
301.6
301.637
300
300.001
300.002
300.003
300.004
300.005
300.006
300.008
300.009
300.011
300.013
300.015
300.018
300.021
300.024
300.027
300.031
300.035
300.039
300.044
300.05
300.055
300.062
300.068
300.076
300.084
300.092
300.101
300.111
300.121
300.132
300.143
300.156
300.169
300.182
300.197
300.212
300.228
300.245
300.263
300.281
300.3
300.32
300.341
300.362
300.385
300.408
300.432
300.457
300.483
300.51
300.538
300.566
300.595
300.625
300.656
300.687
300.72
300.753
300.787
300.821
300.856
300.892
300.928
300.965
301.003
301.04
301.079
301.117
301.156
301.194
301.233
301.272
301.311
301.349
301.387
301.425
301.462
301.498
301.534
301.569
300
300.001
300.002
300.003
300.004
300.005
300.006
300.008
300.009
300.011
300.013
300.015
300.018
300.02
300.024
300.027
300.031
300.035
300.039
300.044
300.049
300.055
300.061
300.068
300.075
300.083
300.091
300.1
300.109
300.12
300.13
300.142
300.154
300.167
300.18
300.194
300.209
300.225
300.242
300.259
300.277
300.296
300.315
300.336
300.357
300.379
300.402
300.425
300.45
300.475
300.501
300.527
300.555
300.583
300.612
300.642
300.672
300.703
300.735
300.768
300.801
300.834
300.868
300.903
300.938
300.973
301.009
301.045
301.081
301.117
301.153
301.189
301.225
301.261
301.297
301.332
301.366
301.401
301.434
301.468
301.5
300
300.001
300.002
300.003
300.004
300.005
300.006
300.008
300.009
300.011
300.013
300.015
300.018
300.02
300.023
300.027
300.03
300.034
300.039
300.043
300.048
300.054
300.06
300.067
300.074
300.082
300.09
300.099
300.108
300.118
300.129
300.14
300.152
300.164
300.178
300.192
300.206
300.222
300.238
300.255
300.272
300.291
300.31
300.33
300.35
300.372
300.394
300.417
300.44
300.465
300.49
300.516
300.542
300.57
300.598
300.626
300.655
300.685
300.715
300.746
300.778
300.81
300.842
300.875
300.907
300.941
300.974
301.008
301.041
301.075
301.109
301.142
301.176
301.209
301.242
301.274
301.306
301.338
301.369
301.4
301.43
300
300.001
300.002
300.003
300.004
300.005
300.006
300.008
300.009
300.011
300.013
300.015
300.017
300.02
300.023
300.026
300.03
300.034
300.038
300.043
300.048
300.053
300.059
300.066
300.073
300.08
300.088
300.097
300.106
300.116
300.126
300.137
300.149
300.161
300.174
300.188
300.202
300.218
300.233
300.25
300.267
300.285
300.303
300.323
300.343
300.364
300.385
300.407
300.43
300.454
300.478
300.503
300.528
300.554
300.581
300.608
300.636
300.665
300.693
300.723
300.752
300.783
300.813
300.844
300.875
300.906
300.937
300.968
301
301.031
301.062
301.093
301.124
301.155
301.185
301.215
301.245
301.274
301.302
301.33
301.358
300
300.001
300.002
300.003
300.004
300.005
300.006
300.008
300.009
300.011
300.013
300.015
300.017
300.02
300.023
300.026
300.029
300.033
300.037
300.042
300.047
300.052
300.058
300.065
300.072
300.079
300.087
300.095
300.104
300.114
300.124
300.135
300.146
300.158
300.171
300.184
300.198
300.213
300.228
300.244
300.261
300.278
300.296
300.315
300.334
300.354
300.375
300.396
300.418
300.441
300.464
300.488
300.512
300.537
300.563
300.589
300.615
300.642
300.669
300.697
300.725
300.753
300.782
300.81
300.839
300.868
300.897
300.926
300.956
300.984
301.013
301.042
301.071
301.099
301.127
301.154
301.181
301.208
301.234
301.26
301.286
300
300.001
300.002
300.003
300.004
300.005
300.006
300.007
300.009
300.011
300.012
300.014
300.017
300.019
300.022
300.025
300.029
300.033
300.037
300.041
300.046
300.051
300.057
300.063
300.07
300.077
300.085
300.093
300.102
300.111
300.121
300.132
300.143
300.155
300.167
300.18
300.193
300.207
300.222
300.238
300.254
300.271
300.288
300.306
300.325
300.344
300.364
300.384
300.405
300.427
300.449
300.471
300.495
300.518
300.542
300.567
300.592
300.617
300.643
300.669
300.695
300.721
300.748
300.775
300.802
300.828
300.855
300.882
300.909
300.936
300.962
300.989
301.015
301.041
301.066
301.092
301.117
301.141
301.165
301.189
301.212
300
300.001
300.002
300.003
300.004
300.005
300.006
300.007
300.009
300.01
300.012
300.014
300.016
300.019
300.022
300.025
300.028
300.032
300.036
300.04
300.045
300.05
300.056
300.062
300.068
300.075
300.083
300.091
300.099
300.109
300.118
300.128
300.139
300.15
300.162
300.175
300.188
300.201
300.216
300.23
300.246
300.262
300.279
300.296
300.314
300.332
300.351
300.37
300.39
300.411
300.432
300.453
300.475
300.497
300.52
300.543
300.567
300.59
300.614
300.638
300.663
300.687
300.712
300.737
300.762
300.787
300.811
300.836
300.861
300.885
300.91
300.934
300.958
300.982
301.005
301.028
301.051
301.073
301.095
301.117
301.138
300
300.001
300.002
300.003
300.004
300.005
300.006
300.007
300.008
300.01
300.012
300.014
300.016
300.018
300.021
300.024
300.027
300.031
300.035
300.039
300.044
300.049
300.054
300.06
300.067
300.073
300.081
300.088
300.097
300.105
300.115
300.124
300.135
300.146
300.157
300.169
300.181
300.195
300.208
300.222
300.237
300.252
300.268
300.285
300.302
300.319
300.337
300.355
300.374
300.394
300.413
300.433
300.454
300.475
300.496
300.518
300.539
300.561
300.584
300.606
300.629
300.651
300.674
300.697
300.72
300.743
300.765
300.788
300.811
300.833
300.855
300.878
300.899
300.921
300.942
300.963
300.984
301.005
301.025
301.045
301.064
300
300.001
300.002
300.003
300.004
300.005
300.006
300.007
300.008
300.01
300.012
300.013
300.016
300.018
300.021
300.023
300.027
300.03
300.034
300.038
300.043
300.047
300.053
300.058
300.064
300.071
300.078
300.085
300.093
300.102
300.111
300.12
300.13
300.14
300.151
300.163
300.174
300.187
300.2
300.213
300.227
300.242
300.257
300.272
300.288
300.305
300.322
300.339
300.357
300.375
300.393
300.412
300.431
300.451
300.47
300.49
300.51
300.531
300.551
300.572
300.593
300.614
300.635
300.655
300.676
300.697
300.718
300.739
300.759
300.78
300.8
300.82
300.84
300.86
300.879
300.898
300.917
300.935
300.954
300.972
300.989
300
300.001
300.002
300.003
300.003
300.004
300.005
300.007
300.008
300.009
300.011
300.013
300.015
300.017
300.02
300.023
300.026
300.029
300.033
300.037
300.041
300.046
300.051
300.056
300.062
300.068
300.075
300.082
300.09
300.098
300.106
300.115
300.124
300.134
300.145
300.155
300.167
300.179
300.191
300.204
300.217
300.23
300.245
300.259
300.274
300.289
300.305
300.321
300.338
300.355
300.372
300.389
300.407
300.425
300.443
300.461
300.48
300.499
300.517
300.536
300.555
300.574
300.593
300.612
300.631
300.65
300.669
300.688
300.707
300.725
300.743
300.762
300.78
300.797
300.815
300.832
300.849
300.866
300.882
300.899
300.915
300
300.001
300.002
300.002
300.003
300.004
300.005
300.006
300.008
300.009
300.011
300.013
300.015
300.017
300.019
300.022
300.025
300.028
300.031
300.035
300.039
300.044
300.049
300.054
300.059
300.065
300.072
300.078
300.086
300.093
300.101
300.11
300.118
300.128
300.138
300.148
300.158
300.169
300.181
300.193
300.205
300.218
300.231
300.245
300.259
300.273
300.287
300.302
300.318
300.333
300.349
300.365
300.381
300.398
300.414
300.431
300.448
300.465
300.482
300.499
300.517
300.534
300.551
300.568
300.585
300.603
300.62
300.636
300.653
300.67
300.686
300.703
300.719
300.735
300.751
300.766
300.781
300.796
300.811
300.826
300.84
300
300.001
300.002
300.002
300.003
300.004
300.005
300.006
300.007
300.009
300.01
300.012
300.014
300.016
300.018
300.021
300.024
300.027
300.03
300.034
300.037
300.042
300.046
300.051
300.056
300.062
300.068
300.074
300.081
300.088
300.096
300.104
300.112
300.121
300.13
300.139
300.149
300.16
300.17
300.181
300.193
300.205
300.217
300.229
300.242
300.255
300.269
300.282
300.296
300.31
300.325
300.339
300.354
300.369
300.384
300.399
300.415
300.43
300.446
300.461
300.477
300.492
300.508
300.523
300.539
300.554
300.569
300.584
300.599
300.614
300.629
300.644
300.658
300.672
300.686
300.7
300.714
300.727
300.741
300.754
300.766
300
300.001
300.002
300.002
300.003
300.004
300.005
300.006
300.007
300.008
300.01
300.011
300.013
300.015
300.017
300.02
300.022
300.025
300.028
300.032
300.035
300.039
300.044
300.048
300.053
300.058
300.064
300.07
300.076
300.083
300.09
300.097
300.105
300.113
300.122
300.13
300.139
300.149
300.159
300.169
300.18
300.19
300.201
300.213
300.225
300.237
300.249
300.261
300.274
300.287
300.3
300.313
300.326
300.34
300.353
300.367
300.381
300.395
300.408
300.422
300.436
300.45
300.464
300.478
300.491
300.505
300.519
300.532
300.546
300.559
300.572
300.585
300.598
300.61
300.623
300.635
300.647
300.659
300.671
300.682
300.694
300
300.001
300.001
300.002
300.003
300.004
300.005
300.006
300.007
300.008
300.009
300.011
300.012
300.014
300.016
300.019
300.021
300.024
300.027
300.03
300.033
300.037
300.041
300.045
300.05
300.055
300.06
300.065
300.071
300.077
300.084
300.09
300.098
300.105
300.113
300.121
300.129
300.138
300.147
300.156
300.166
300.175
300.186
300.196
300.206
300.217
300.228
300.239
300.251
300.262
300.274
300.286
300.298
300.31
300.322
300.334
300.346
300.359
300.371
300.383
300.396
300.408
300.42
300.432
300.444
300.456
300.468
300.48
300.492
300.504
300.515
300.527
300.538
300.549
300.56
300.571
300.582
300.592
300.602
300.613
300.623
300
300.001
300.001
300.002
300.003
300.003
300.004
300.005
300.006
300.007
300.009
300.01
300.012
300.013
300.015
300.017
300.02
300.022
300.025
300.028
300.031
300.034
300.038
300.042
300.046
300.05
300.055
300.06
300.066
300.071
300.077
300.083
300.09
300.096
300.103
300.111
300.118
300.126
300.134
300.143
300.151
300.16
300.169
300.178
300.188
300.197
300.207
300.217
300.227
300.237
300.248
300.258
300.269
300.279
300.29
300.301
300.312
300.323
300.333
300.344
300.355
300.366
300.376
300.387
300.398
300.408
300.419
300.429
300.439
300.45
300.46
300.47
300.479
300.489
300.499
300.508
300.518
300.527
300.536
300.545
300.553
300
300.001
300.001
300.002
300.002
300.003
300.004
300.005
300.006
300.007
300.008
300.009
300.011
300.012
300.014
300.016
300.018
300.02
300.023
300.025
300.028
300.031
300.035
300.038
300.042
300.046
300.05
300.055
300.06
300.065
300.07
300.076
300.082
300.088
300.094
300.1
300.107
300.114
300.121
300.129
300.136
300.144
300.152
300.16
300.169
300.177
300.186
300.195
300.204
300.212
300.222
300.231
300.24
300.249
300.259
300.268
300.277
300.287
300.296
300.306
300.315
300.324
300.334
300.343
300.352
300.361
300.37
300.379
300.388
300.397
300.406
300.414
300.423
300.431
300.439
300.448
300.456
300.464
300.471
300.479
300.487
300
300.001
300.001
300.002
300.002
300.003
300.004
300.004
300.005
300.006
300.007
300.008
300.01
300.011
300.013
300.014
300.016
300.018
300.021
300.023
300.026
300.028
300.031
300.035
300.038
300.042
300.046
300.05
300.054
300.058
300.063
300.068
300.073
300.078
300.084
300.09
300.096
300.102
300.108
300.115
300.121
300.128
300.135
300.142
300.15
300.157
300.165
300.172
300.18
300.188
300.196
300.204
300.211
300.219
300.228
300.236
300.244
300.252
300.26
300.268
300.276
300.284
300.292
300.3
300.308
300.316
300.323
300.331
300.339
300.346
300.354
300.361
300.368
300.375
300.383
300.39
300.396
300.403
300.41
300.416
300.423
300
300.001
300.001
300.002
300.002
300.003
300.003
300.004
300.005
300.006
300.007
300.008
300.009
300.01
300.011
300.013
300.015
300.017
300.019
300.021
300.023
300.025
300.028
300.031
300.034
300.037
300.041
300.044
300.048
300.052
300.056
300.06
300.065
300.069
300.074
300.079
300.084
300.09
300.095
300.101
300.107
300.112
300.119
300.125
300.131
300.137
300.144
300.15
300.157
300.163
300.17
300.177
300.184
300.191
300.197
300.204
300.211
300.218
300.225
300.232
300.239
300.245
300.252
300.259
300.265
300.272
300.279
300.285
300.292
300.298
300.304
300.31
300.317
300.323
300.329
300.334
300.34
300.346
300.352
300.357
300.363
300
300.001
300.001
300.001
300.002
300.002
300.003
300.004
300.004
300.005
300.006
300.007
300.008
300.009
300.01
300.011
300.013
300.015
300.016
300.018
300.02
300.022
300.025
300.027
300.03
300.033
300.035
300.039
300.042
300.045
300.049
300.052
300.056
300.06
300.064
300.069
300.073
300.078
300.082
300.087
300.092
300.097
300.102
300.107
300.113
300.118
300.123
300.129
300.135
300.14
300.146
300.151
300.157
300.163
300.169
300.174
300.18
300.186
300.192
300.197
300.203
300.209
300.214
300.22
300.225
300.231
300.236
300.242
300.247
300.253
300.258
300.263
300.268
300.273
300.278
300.283
300.288
300.293
300.297
300.302
300.306
300
300
300.001
300.001
300.002
300.002
300.003
300.003
300.004
300.004
300.005
300.006
300.007
300.008
300.009
300.01
300.011
300.013
300.014
300.016
300.017
300.019
300.021
300.023
300.026
300.028
300.03
300.033
300.036
300.039
300.042
300.045
300.048
300.052
300.055
300.059
300.062
300.066
300.07
300.074
300.078
300.082
300.087
300.091
300.095
300.1
300.104
300.109
300.113
300.118
300.123
300.127
300.132
300.137
300.142
300.146
300.151
300.156
300.161
300.165
300.17
300.175
300.179
300.184
300.188
300.193
300.197
300.202
300.206
300.211
300.215
300.219
300.223
300.227
300.231
300.235
300.239
300.243
300.247
300.251
300.255
300
300
300.001
300.001
300.001
300.002
300.002
300.003
300.003
300.004
300.004
300.005
300.006
300.007
300.008
300.009
300.01
300.011
300.012
300.013
300.015
300.016
300.018
300.02
300.022
300.024
300.026
300.028
300.03
300.033
300.035
300.038
300.04
300.043
300.046
300.049
300.052
300.055
300.058
300.062
300.065
300.068
300.072
300.075
300.079
300.083
300.086
300.09
300.094
300.098
300.101
300.105
300.109
300.113
300.117
300.12
300.124
300.128
300.132
300.136
300.14
300.143
300.147
300.151
300.154
300.158
300.162
300.165
300.169
300.172
300.176
300.179
300.183
300.186
300.189
300.192
300.196
300.199
300.202
300.205
300.208
300
300
300.001
300.001
300.001
300.001
300.002
300.002
300.003
300.003
300.004
300.004
300.005
300.006
300.006
300.007
300.008
300.009
300.01
300.011
300.012
300.014
300.015
300.016
300.018
300.02
300.021
300.023
300.025
300.027
300.029
300.031
300.033
300.035
300.038
300.04
300.043
300.045
300.048
300.05
300.053
300.056
300.059
300.061
300.064
300.067
300.07
300.073
300.076
300.079
300.082
300.085
300.088
300.091
300.094
300.097
300.1
300.103
300.106
300.109
300.112
300.115
300.118
300.121
300.124
300.127
300.13
300.133
300.135
300.138
300.141
300.144
300.146
300.149
300.152
300.154
300.157
300.159
300.162
300.164
300.166
300
300
300
300.001
300.001
300.001
300.001
300.002
300.002
300.003
300.003
300.003
300.004
300.004
300.005
300.006
300.006
300.007
300.008
300.009
300.01
300.011
300.012
300.013
300.014
300.016
300.017
300.019
300.02
300.022
300.023
300.025
300.027
300.028
300.03
300.032
300.034
300.036
300.038
300.04
300.042
300.044
300.047
300.049
300.051
300.053
300.056
300.058
300.06
300.063
300.065
300.067
300.07
300.072
300.074
300.077
300.079
300.081
300.084
300.086
300.088
300.091
300.093
300.095
300.098
300.1
300.102
300.104
300.106
300.109
300.111
300.113
300.115
300.117
300.119
300.121
300.123
300.125
300.127
300.129
300.13
300
300
300
300.001
300.001
300.001
300.001
300.001
300.002
300.002
300.002
300.003
300.003
300.004
300.004
300.005
300.005
300.006
300.006
300.007
300.008
300.009
300.01
300.01
300.011
300.012
300.013
300.015
300.016
300.017
300.018
300.019
300.021
300.022
300.024
300.025
300.027
300.028
300.03
300.031
300.033
300.035
300.036
300.038
300.04
300.041
300.043
300.045
300.047
300.049
300.05
300.052
300.054
300.056
300.058
300.059
300.061
300.063
300.065
300.066
300.068
300.07
300.072
300.073
300.075
300.077
300.079
300.08
300.082
300.084
300.085
300.087
300.088
300.09
300.091
300.093
300.094
300.096
300.097
300.099
300.1
300
300
300
300
300.001
300.001
300.001
300.001
300.001
300.002
300.002
300.002
300.002
300.003
300.003
300.004
300.004
300.004
300.005
300.006
300.006
300.007
300.007
300.008
300.009
300.01
300.01
300.011
300.012
300.013
300.014
300.015
300.016
300.017
300.018
300.019
300.02
300.022
300.023
300.024
300.025
300.026
300.028
300.029
300.03
300.032
300.033
300.034
300.036
300.037
300.038
300.04
300.041
300.042
300.044
300.045
300.046
300.048
300.049
300.05
300.052
300.053
300.054
300.056
300.057
300.058
300.059
300.061
300.062
300.063
300.064
300.066
300.067
300.068
300.069
300.07
300.071
300.072
300.074
300.075
300.076
300
300
300
300
300
300.001
300.001
300.001
300.001
300.001
300.001
300.002
300.002
300.002
300.002
300.003
300.003
300.003
300.004
300.004
300.005
300.005
300.006
300.006
300.007
300.007
300.008
300.009
300.009
300.01
300.011
300.012
300.012
300.013
300.014
300.015
300.016
300.016
300.017
300.018
300.019
300.02
300.021
300.022
300.023
300.024
300.025
300.026
300.027
300.028
300.029
300.03
300.031
300.032
300.033
300.034
300.035
300.036
300.037
300.038
300.039
300.04
300.041
300.042
300.043
300.044
300.045
300.046
300.047
300.048
300.049
300.049
300.05
300.051
300.052
300.053
300.054
300.055
300.055
300.056
300.057
300
300
300
300
300
300
300.001
300.001
300.001
300.001
300.001
300.001
300.001
300.002
300.002
300.002
300.002
300.003
300.003
300.003
300.004
300.004
300.005
300.005
300.005
300.006
300.006
300.007
300.007
300.008
300.008
300.009
300.01
300.01
300.011
300.012
300.012
300.013
300.014
300.014
300.015
300.016
300.016
300.017
300.018
300.019
300.019
300.02
300.021
300.022
300.023
300.023
300.024
300.025
300.026
300.026
300.027
300.028
300.029
300.03
300.03
300.031
300.032
300.033
300.033
300.034
300.035
300.035
300.036
300.037
300.038
300.038
300.039
300.04
300.04
300.041
300.042
300.042
300.043
300.043
300.044
300
300
300
300
300
300
300
300.001
300.001
300.001
300.001
300.001
300.001
300.001
300.002
300.002
300.002
300.002
300.003
300.003
300.003
300.004
300.004
300.004
300.005
300.005
300.005
300.006
300.006
300.007
300.007
300.008
300.008
300.009
300.009
300.01
300.01
300.011
300.012
300.012
300.013
300.013
300.014
300.015
300.015
300.016
300.017
300.017
300.018
300.018
300.019
300.02
300.02
300.021
300.022
300.022
300.023
300.024
300.024
300.025
300.026
300.026
300.027
300.028
300.028
300.029
300.029
300.03
300.031
300.031
300.032
300.032
300.033
300.034
300.034
300.035
300.035
300.036
300.036
300.037
300.037
302.545
302.669
302.742
302.81
302.869
302.917
302.948
302.985
303.02
303.054
303.081
303.111
303.142
303.171
303.2
303.229
303.255
303.278
303.303
303.327
303.351
303.375
303.399
303.422
303.445
303.467
303.489
303.51
303.531
303.551
303.572
303.591
303.61
303.629
303.648
303.666
303.684
303.702
303.719
303.736
303.752
303.768
303.785
303.802
303.819
303.835
303.849
303.865
303.881
303.896
303.91
303.923
303.937
303.951
303.965
303.979
303.993
304.007
304.02
304.032
304.043
304.054
304.065
304.077
304.088
304.1
304.11
304.121
304.131
304.141
304.151
304.16
304.169
304.178
304.187
304.195
304.203
304.211
304.218
304.226
304.234
304.242
304.248
304.254
304.26
304.265
304.271
304.277
304.283
304.287
304.292
304.296
304.301
304.305
304.31
304.314
304.318
304.321
304.324
304.327
304.33
304.333
304.335
304.337
304.339
304.342
304.343
304.345
304.346
304.347
304.348
304.35
304.351
304.352
304.352
304.353
304.353
304.354
304.354
304.354
304.354
304.353
304.353
304.352
304.351
304.35
304.348
304.347
304.344
304.341
304.338
304.334
304.33
304.325
304.32
304.313
304.306
304.299
304.29
304.28
304.27
304.258
304.245
304.23
304.214
304.197
304.177
304.156
304.131
304.102
304.067
304.031
303.995
303.952
303.904
303.848
303.786
303.678
303.576
303.443
303.263
302.446
302.554
302.638
302.709
302.769
302.821
302.863
302.902
302.94
302.975
303.008
303.04
303.071
303.101
303.131
303.16
303.187
303.212
303.238
303.263
303.288
303.312
303.336
303.36
303.383
303.406
303.428
303.449
303.471
303.492
303.512
303.532
303.552
303.571
303.59
303.608
303.626
303.644
303.661
303.679
303.695
303.712
303.729
303.746
303.762
303.778
303.794
303.809
303.825
303.84
303.854
303.868
303.882
303.896
303.91
303.924
303.938
303.952
303.965
303.977
303.988
304
304.011
304.023
304.034
304.045
304.056
304.067
304.077
304.087
304.097
304.107
304.116
304.125
304.133
304.141
304.15
304.157
304.165
304.173
304.181
304.188
304.195
304.201
304.207
304.212
304.218
304.224
304.23
304.234
304.239
304.243
304.248
304.252
304.257
304.261
304.265
304.268
304.271
304.274
304.277
304.28
304.282
304.284
304.287
304.289
304.29
304.292
304.293
304.295
304.296
304.297
304.298
304.299
304.3
304.3
304.301
304.301
304.301
304.301
304.301
304.301
304.3
304.299
304.298
304.297
304.296
304.294
304.291
304.289
304.285
304.282
304.277
304.273
304.267
304.261
304.254
304.246
304.237
304.228
304.217
304.205
304.192
304.178
304.162
304.145
304.125
304.103
304.078
304.049
304.015
303.979
303.941
303.898
303.849
303.792
303.725
303.621
303.514
303.374
303.177
302.365
302.459
302.54
302.611
302.673
302.727
302.774
302.817
302.857
302.895
302.93
302.964
302.996
303.028
303.058
303.088
303.116
303.143
303.169
303.195
303.22
303.245
303.27
303.294
303.318
303.341
303.363
303.385
303.407
303.428
303.449
303.469
303.489
303.509
303.528
303.546
303.565
303.583
303.601
303.618
303.635
303.652
303.669
303.686
303.703
303.719
303.734
303.75
303.766
303.781
303.795
303.81
303.824
303.838
303.852
303.866
303.88
303.893
303.906
303.919
303.931
303.942
303.954
303.965
303.977
303.988
303.999
304.01
304.02
304.03
304.04
304.049
304.059