/*--------------------------------*- C++ -*----------------------------------*\
| =========                 |                                                 |
| \\      /  F ield         | OpenFOAM: The Open Source CFD Toolbox           |
|  \\    /   O peration     | Version:  2106                                  |
|   \\  /    A nd           | Website:  www.openfoam.com                      |
|    \\/     M anipulation  |                                                 |
\*---------------------------------------------------------------------------*/
FoamFile
{
    version     2.0;
    format      ascii;
    arch        "LSB;label=32;scalar=64";
    class       volVectorField;
    location    "1.2";
    object      U;
}
// * * * * * * * * * * * * * * * * * * * * * * * * * * * * * * * * * * * * * //

dimensions      [0 1 -1 0 0 0 0];

internalField   nonuniform List<vector> 
12013
(
(0.100008 -2.25452e-06 0)
(0.100041 -4.00287e-06 0)
(0.100091 -5.26856e-06 0)
(0.10015 -5.95728e-06 0)
(0.100212 -6.05219e-06 0)
(0.100271 -5.56758e-06 0)
(0.100321 -4.58664e-06 0)
(0.100359 -3.26845e-06 0)
(0.100384 -1.8194e-06 0)
(0.100395 -4.51518e-07 0)
(0.100395 6.60152e-07 0)
(0.100387 1.4048e-06 0)
(0.100375 1.74291e-06 0)
(0.100362 1.69678e-06 0)
(0.100352 1.32672e-06 0)
(0.100346 7.11046e-07 0)
(0.100346 -7.35717e-08 0)
(0.100353 -9.63757e-07 0)
(0.100367 -1.91407e-06 0)
(0.100388 -2.8967e-06 0)
(0.100416 -3.89707e-06 0)
(0.100451 -4.91109e-06 0)
(0.100493 -5.94091e-06 0)
(0.100541 -6.99017e-06 0)
(0.100596 -8.06334e-06 0)
(0.100657 -9.16424e-06 0)
(0.100725 -1.0295e-05 0)
(0.100799 -1.14568e-05 0)
(0.100879 -1.2648e-05 0)
(0.100965 -1.38674e-05 0)
(0.101057 -1.5112e-05 0)
(0.101155 -1.63775e-05 0)
(0.101259 -1.76593e-05 0)
(0.101368 -1.89517e-05 0)
(0.101483 -2.02482e-05 0)
(0.101603 -2.15419e-05 0)
(0.101728 -2.28244e-05 0)
(0.101857 -2.40863e-05 0)
(0.10199 -2.53173e-05 0)
(0.102128 -2.65056e-05 0)
(0.102269 -2.76375e-05 0)
(0.102413 -2.86984e-05 0)
(0.102559 -2.96709e-05 0)
(0.102707 -3.05365e-05 0)
(0.102856 -3.12735e-05 0)
(0.103006 -3.18576e-05 0)
(0.103156 -3.22614e-05 0)
(0.103305 -3.24542e-05 0)
(0.103452 -3.24003e-05 0)
(0.103595 -3.20603e-05 0)
(0.103735 -3.13885e-05 0)
(0.103869 -3.03323e-05 0)
(0.103997 -2.88317e-05 0)
(0.104116 -2.68167e-05 0)
(0.104226 -2.42059e-05 0)
(0.104323 -2.09038e-05 0)
(0.104407 -1.67975e-05 0)
(0.104474 -1.17534e-05 0)
(0.104523 -5.61091e-06 0)
(0.104549 1.82585e-06 0)
(0.104549 1.0797e-05 0)
(0.104519 2.15969e-05 0)
(0.104455 3.45917e-05 0)
(0.10435 5.02429e-05 0)
(0.104197 6.91409e-05 0)
(0.103989 9.20495e-05 0)
(0.103714 0.000119972 0)
(0.103361 0.000154252 0)
(0.102913 0.000196714 0)
(0.102351 0.000249896 0)
(0.101646 0.000317395 0)
(0.100765 0.000404431 0)
(0.0996588 0.000518776 0)
(0.0982607 0.00067229 0)
(0.0964756 0.000883561 0)
(0.094165 0.00118249 0)
(0.091122 0.00161846 0)
(0.087016 0.00227737 0)
(0.0813247 0.00333457 0)
(0.0734113 0.00528311 0)
(0.0644679 0.0103505 0)
(0.100008 -6.90215e-06 0)
(0.10004 -1.22896e-05 0)
(0.100091 -1.61826e-05 0)
(0.10015 -1.83007e-05 0)
(0.100211 -1.85964e-05 0)
(0.10027 -1.71129e-05 0)
(0.100321 -1.41053e-05 0)
(0.10036 -1.00595e-05 0)
(0.100384 -5.61011e-06 0)
(0.100396 -1.40811e-06 0)
(0.100396 2.00965e-06 0)
(0.100388 4.30233e-06 0)
(0.100376 5.34825e-06 0)
(0.100363 5.21359e-06 0)
(0.100352 4.08465e-06 0)
(0.100346 2.20144e-06 0)
(0.100346 -2.00851e-07 0)
(0.100352 -2.928e-06 0)
(0.100366 -5.83994e-06 0)
(0.100387 -8.85035e-06 0)
(0.100415 -1.19158e-05 0)
(0.100449 -1.50232e-05 0)
(0.100491 -1.8178e-05 0)
(0.100538 -2.13923e-05 0)
(0.100593 -2.46794e-05 0)
(0.100653 -2.80509e-05 0)
(0.10072 -3.15134e-05 0)
(0.100793 -3.50695e-05 0)
(0.100872 -3.87166e-05 0)
(0.100958 -4.2449e-05 0)
(0.101049 -4.62571e-05 0)
(0.101146 -5.01286e-05 0)
(0.101248 -5.40494e-05 0)
(0.101357 -5.80018e-05 0)
(0.10147 -6.19662e-05 0)
(0.101589 -6.59205e-05 0)
(0.101712 -6.98396e-05 0)
(0.10184 -7.36946e-05 0)
(0.101972 -7.74531e-05 0)
(0.102108 -8.10793e-05 0)
(0.102247 -8.45322e-05 0)
(0.102389 -8.77663e-05 0)
(0.102533 -9.07288e-05 0)
(0.10268 -9.33614e-05 0)
(0.102827 -9.55986e-05 0)
(0.102975 -9.73658e-05 0)
(0.103123 -9.85798e-05 0)
(0.103269 -9.91454e-05 0)
(0.103414 -9.89551e-05 0)
(0.103555 -9.78871e-05 0)
(0.103692 -9.58016e-05 0)
(0.103824 -9.25385e-05 0)
(0.103949 -8.79139e-05 0)
(0.104066 -8.17148e-05 0)
(0.104173 -7.36926e-05 0)
(0.104268 -6.35558e-05 0)
(0.104349 -5.09614e-05 0)
(0.104414 -3.55023e-05 0)
(0.10446 -1.66892e-05 0)
(0.104485 6.07161e-06 0)
(0.104483 3.35061e-05 0)
(0.104453 6.65022e-05 0)
(0.104388 0.000106163 0)
(0.104283 0.000153877 0)
(0.104132 0.000211411 0)
(0.103927 0.000281042 0)
(0.103659 0.000365754 0)
(0.103315 0.000469507 0)
(0.102881 0.000597656 0)
(0.102339 0.00075757 0)
(0.101666 0.000959586 0)
(0.100831 0.00121851 0)
(0.0997958 0.00155597 0)
(0.0985072 0.00200422 0)
(0.0968957 0.00261229 0)
(0.0948689 0.00345557 0)
(0.0923052 0.00465032 0)
(0.0890439 0.00637413 0)
(0.0849026 0.0088941 0)
(0.0799297 0.0125364 0)
(0.0755954 0.0172072 0)
(0.100008 -1.17961e-05 0)
(0.10004 -2.11401e-05 0)
(0.10009 -2.78589e-05 0)
(0.100149 -3.15236e-05 0)
(0.100211 -3.20527e-05 0)
(0.10027 -2.95203e-05 0)
(0.100321 -2.43612e-05 0)
(0.10036 -1.74085e-05 0)
(0.100385 -9.7512e-06 0)
(0.100397 -2.50907e-06 0)
(0.100398 3.39226e-06 0)
(0.10039 7.36488e-06 0)
(0.100378 9.19738e-06 0)
(0.100365 8.9987e-06 0)
(0.100354 7.08917e-06 0)
(0.100348 3.87992e-06 0)
(0.100347 -2.25594e-07 0)
(0.100353 -4.8925e-06 0)
(0.100366 -9.87938e-06 0)
(0.100386 -1.50365e-05 0)
(0.100413 -2.02892e-05 0)
(0.100447 -2.56137e-05 0)
(0.100487 -3.10177e-05 0)
(0.100534 -3.65221e-05 0)
(0.100587 -4.21498e-05 0)
(0.100646 -4.79196e-05 0)
(0.100712 -5.38435e-05 0)
(0.100784 -5.99246e-05 0)
(0.100861 -6.61598e-05 0)
(0.100945 -7.25377e-05 0)
(0.101034 -7.90425e-05 0)
(0.101129 -8.56534e-05 0)
(0.10123 -9.23448e-05 0)
(0.101336 -9.90869e-05 0)
(0.101447 -0.000105846 0)
(0.101563 -0.000112584 0)
(0.101684 -0.000119257 0)
(0.101809 -0.000125816 0)
(0.101938 -0.000132205 0)
(0.102071 -0.000138362 0)
(0.102207 -0.000144217 0)
(0.102345 -0.000149692 0)
(0.102486 -0.000154696 0)
(0.102629 -0.000159129 0)
(0.102772 -0.000162878 0)
(0.102916 -0.000165818 0)
(0.103059 -0.000167803 0)
(0.103201 -0.000168671 0)
(0.103341 -0.00016824 0)
(0.103478 -0.000166301 0)
(0.10361 -0.000162615 0)
(0.103737 -0.00015691 0)
(0.103857 -0.000148873 0)
(0.103969 -0.000138141 0)
(0.104071 -0.000124293 0)
(0.104161 -0.000106837 0)
(0.104237 -8.51909e-05 0)
(0.104297 -5.86684e-05 0)
(0.104339 -2.64458e-05 0)
(0.104359 1.24735e-05 0)
(0.104355 5.92996e-05 0)
(0.104321 0.000115508 0)
(0.104255 0.000182925 0)
(0.104151 0.000263835 0)
(0.104002 0.000361127 0)
(0.103803 0.000478496 0)
(0.103544 0.000620733 0)
(0.103215 0.000794127 0)
(0.102805 0.00100706 0)
(0.102298 0.00127085 0)
(0.101676 0.00160107 0)
(0.100919 0.00201936 0)
(0.0999979 0.00255628 0)
(0.0988827 0.0032554 0)
(0.0975373 0.00417905 0)
(0.0959247 0.0054157 0)
(0.0940167 0.00708687 0)
(0.0918111 0.00934724 0)
(0.08938 0.0123616 0)
(0.0870151 0.0161752 0)
(0.0855143 0.0201625 0)
(0.100007 -1.6923e-05 0)
(0.100039 -3.05642e-05 0)
(0.100089 -4.03175e-05 0)
(0.100148 -4.56692e-05 0)
(0.10021 -4.64851e-05 0)
(0.100269 -4.28713e-05 0)
(0.100321 -3.54502e-05 0)
(0.100361 -2.54197e-05 0)
(0.100387 -1.43472e-05 0)
(0.100399 -3.84934e-06 0)
(0.100401 4.73233e-06 0)
(0.100394 1.05431e-05 0)
(0.100382 1.32702e-05 0)
(0.10037 1.30639e-05 0)
(0.100359 1.0381e-05 0)
(0.100352 5.81241e-06 0)
(0.100351 -6.09244e-08 0)
(0.100356 -6.75373e-06 0)
(0.100368 -1.3916e-05 0)
(0.100387 -2.1329e-05 0)
(0.100413 -2.88816e-05 0)
(0.100445 -3.65381e-05 0)
(0.100484 -4.43069e-05 0)
(0.100529 -5.2217e-05 0)
(0.100581 -6.03006e-05 0)
(0.100639 -6.85836e-05 0)
(0.100702 -7.70829e-05 0)
(0.100772 -8.58029e-05 0)
(0.100847 -9.47379e-05 0)
(0.100928 -0.000103872 0)
(0.101015 -0.000113183 0)
(0.101108 -0.000122638 0)
(0.101205 -0.000132202 0)
(0.101308 -0.000141832 0)
(0.101416 -0.000151477 0)
(0.101529 -0.000161083 0)
(0.101645 -0.000170586 0)
(0.101767 -0.000179914 0)
(0.101891 -0.000188989 0)
(0.10202 -0.000197719 0)
(0.102151 -0.000206004 0)
(0.102284 -0.000213729 0)
(0.10242 -0.000220765 0)
(0.102557 -0.000226968 0)
(0.102695 -0.000232175 0)
(0.102833 -0.000236205 0)
(0.10297 -0.000238849 0)
(0.103106 -0.000239877 0)
(0.103239 -0.000239025 0)
(0.103369 -0.000235994 0)
(0.103494 -0.000230445 0)
(0.103614 -0.00022199 0)
(0.103727 -0.000210182 0)
(0.103831 -0.000194507 0)
(0.103926 -0.000174369 0)
(0.104009 -0.000149071 0)
(0.104078 -0.000117795 0)
(0.104132 -7.95769e-05 0)
(0.104168 -3.32635e-05 0)
(0.104182 2.25321e-05 0)
(0.104173 8.94803e-05 0)
(0.104137 0.000169609 0)
(0.104069 0.00026541 0)
(0.103966 0.000379976 0)
(0.103822 0.000517178 0)
(0.103631 0.000681913 0)
(0.103386 0.000880435 0)
(0.10308 0.00112082 0)
(0.102704 0.00141361 0)
(0.102247 0.00177271 0)
(0.101698 0.00221661 0)
(0.101044 0.00277011 0)
(0.100273 0.00346658 0)
(0.0993742 0.00435076 0)
(0.0983427 0.00548185 0)
(0.0971857 0.00693531 0)
(0.0959354 0.00879968 0)
(0.0946675 0.0111592 0)
(0.093529 0.0140446 0)
(0.0927684 0.0173069 0)
(0.0927049 0.0203263 0)
(0.100007 -2.23066e-05 0)
(0.100039 -4.05814e-05 0)
(0.100088 -5.35966e-05 0)
(0.100147 -6.07983e-05 0)
(0.100209 -6.19803e-05 0)
(0.100269 -5.72789e-05 0)
(0.100321 -4.75101e-05 0)
(0.100362 -3.42472e-05 0)
(0.100389 -1.95591e-05 0)
(0.100403 -5.58469e-06 0)
(0.100406 5.89329e-06 0)
(0.1004 1.37302e-05 0)
(0.100389 1.7496e-05 0)
(0.100377 1.73759e-05 0)
(0.100366 1.39633e-05 0)
(0.100359 8.03337e-06 0)
(0.100357 3.54378e-07 0)
(0.100362 -8.4306e-06 0)
(0.100373 -1.78534e-05 0)
(0.10039 -2.76193e-05 0)
(0.100414 -3.7576e-05 0)
(0.100445 -4.76712e-05 0)
(0.100482 -5.79123e-05 0)
(0.100526 -6.83345e-05 0)
(0.100575 -7.89777e-05 0)
(0.100631 -8.98759e-05 0)
(0.100692 -0.000101049 0)
(0.100759 -0.000112503 0)
(0.100832 -0.000124229 0)
(0.10091 -0.000136207 0)
(0.100993 -0.000148405 0)
(0.101082 -0.000160781 0)
(0.101176 -0.000173287 0)
(0.101275 -0.000185865 0)
(0.101379 -0.000198449 0)
(0.101487 -0.000210965 0)
(0.101599 -0.000223328 0)
(0.101715 -0.000235444 0)
(0.101835 -0.000247206 0)
(0.101957 -0.000258495 0)
(0.102082 -0.000269176 0)
(0.10221 -0.000279098 0)
(0.102339 -0.00028809 0)
(0.102469 -0.000295962 0)
(0.102599 -0.000302499 0)
(0.10273 -0.000307461 0)
(0.102859 -0.000310577 0)
(0.102987 -0.000311541 0)
(0.103112 -0.000310009 0)
(0.103233 -0.000305591 0)
(0.10335 -0.000297843 0)
(0.103461 -0.000286261 0)
(0.103565 -0.000270264 0)
(0.10366 -0.000249189 0)
(0.103746 -0.000222265 0)
(0.10382 -0.000188599 0)
(0.103881 -0.000147144 0)
(0.103927 -9.66699e-05 0)
(0.103955 -3.57171e-05 0)
(0.103964 3.74578e-05 0)
(0.10395 0.000124935 0)
(0.10391 0.000229222 0)
(0.103842 0.000353372 0)
(0.103741 0.000501129 0)
(0.103604 0.00067712 0)
(0.103426 0.000887102 0)
(0.103202 0.00113829 0)
(0.102927 0.00143981 0)
(0.102595 0.00180324 0)
(0.102201 0.00224336 0)
(0.10174 0.0027791 0)
(0.101209 0.00343466 0)
(0.100607 0.00424072 0)
(0.0999401 0.00523555 0)
(0.0992243 0.00646506 0)
(0.0984911 0.00798038 0)
(0.0977969 0.00982924 0)
(0.097232 0.012035 0)
(0.0969247 0.0145534 0)
(0.0970269 0.0171967 0)
(0.0976367 0.0195301 0)
(0.100007 -2.79663e-05 0)
(0.100038 -5.12109e-05 0)
(0.100087 -6.7736e-05 0)
(0.100146 -7.6975e-05 0)
(0.100208 -7.86336e-05 0)
(0.100268 -7.28732e-05 0)
(0.100321 -6.07036e-05 0)
(0.100363 -4.40799e-05 0)
(0.100392 -2.55885e-05 0)
(0.100408 -7.91298e-06 0)
(0.100413 6.69653e-06 0)
(0.100408 1.67798e-05 0)
(0.100399 2.17709e-05 0)
(0.100387 2.18763e-05 0)
(0.100377 1.78219e-05 0)
(0.10037 1.05686e-05 0)
(0.100367 1.07812e-06 0)
(0.10037 -9.83925e-06 0)
(0.10038 -2.15883e-05 0)
(0.100396 -3.37902e-05 0)
(0.100419 -4.62439e-05 0)
(0.100448 -5.88751e-05 0)
(0.100483 -7.16862e-05 0)
(0.100524 -8.47164e-05 0)
(0.100571 -9.80115e-05 0)
(0.100624 -0.000111611 0)
(0.100682 -0.00012554 0)
(0.100746 -0.000139803 0)
(0.100816 -0.000154389 0)
(0.100891 -0.000169271 0)
(0.100971 -0.000184408 0)
(0.101055 -0.000199748 0)
(0.101145 -0.000215229 0)
(0.101239 -0.000230777 0)
(0.101338 -0.000246308 0)
(0.101441 -0.000261729 0)
(0.101547 -0.000276933 0)
(0.101658 -0.000291799 0)
(0.101771 -0.000306193 0)
(0.101887 -0.000319966 0)
(0.102005 -0.000332945 0)
(0.102125 -0.000344943 0)
(0.102246 -0.000355744 0)
(0.102368 -0.000365111 0)
(0.10249 -0.000372775 0)
(0.102611 -0.000378437 0)
(0.102731 -0.000381758 0)
(0.10285 -0.000382361 0)
(0.102965 -0.000379818 0)
(0.103076 -0.000373647 0)
(0.103183 -0.000363303 0)
(0.103283 -0.000348165 0)
(0.103377 -0.000327526 0)
(0.103462 -0.000300575 0)
(0.103538 -0.00026638 0)
(0.103602 -0.000223862 0)
(0.103654 -0.000171767 0)
(0.103691 -0.000108628 0)
(0.103712 -3.27152e-05 0)
(0.103714 5.80112e-05 0)
(0.103695 0.000165961 0)
(0.103654 0.000294011 0)
(0.103587 0.000445622 0)
(0.103491 0.000624972 0)
(0.103364 0.000837138 0)
(0.103203 0.00108831 0)
(0.103006 0.00138607 0)
(0.102768 0.00173973 0)
(0.102489 0.00216072 0)
(0.102167 0.0026631 0)
(0.101804 0.00326401 0)
(0.101403 0.00398417 0)
(0.100972 0.00484807 0)
(0.100527 0.0058836 0)
(0.100094 0.00712041 0)
(0.099712 0.0085856 0)
(0.0994375 0.0102949 0)
(0.0993456 0.0122364 0)
(0.0995235 0.0143437 0)
(0.100048 0.016462 0)
(0.10093 0.0183224 0)
(0.100006 -3.39171e-05 0)
(0.100038 -6.24728e-05 0)
(0.100086 -8.2777e-05 0)
(0.100144 -9.42674e-05 0)
(0.100207 -9.65495e-05 0)
(0.100267 -8.97999e-05 0)
(0.100322 -7.52176e-05 0)
(0.100365 -5.51399e-05 0)
(0.100397 -3.26774e-05 0)
(0.100415 -1.10774e-05 0)
(0.100422 6.91661e-06 0)
(0.100419 1.95024e-05 0)
(0.100411 2.5952e-05 0)
(0.100401 2.64753e-05 0)
(0.100391 2.19187e-05 0)
(0.100384 1.34275e-05 0)
(0.100381 2.15905e-06 0)
(0.100383 -1.08999e-05 0)
(0.100391 -2.50178e-05 0)
(0.100406 -3.9721e-05 0)
(0.100426 -5.47508e-05 0)
(0.100453 -7.00041e-05 0)
(0.100486 -8.54726e-05 0)
(0.100525 -0.000101194 0)
(0.100569 -0.00011722 0)
(0.100619 -0.000133593 0)
(0.100675 -0.00015034 0)
(0.100735 -0.000167465 0)
(0.100801 -0.000184954 0)
(0.100872 -0.000202771 0)
(0.100948 -0.000220868 0)
(0.101028 -0.00023918 0)
(0.101113 -0.000257629 0)
(0.101202 -0.000276126 0)
(0.101295 -0.000294568 0)
(0.101392 -0.000312839 0)
(0.101492 -0.000330809 0)
(0.101595 -0.000348332 0)
(0.101701 -0.000365242 0)
(0.10181 -0.000381358 0)
(0.10192 -0.000396471 0)
(0.102032 -0.000410353 0)
(0.102144 -0.000422745 0)
(0.102257 -0.00043336 0)
(0.102369 -0.000441874 0)
(0.102481 -0.000447927 0)
(0.102591 -0.000451117 0)
(0.102698 -0.000450991 0)
(0.102803 -0.000447042 0)
(0.102903 -0.000438698 0)
(0.102998 -0.000425315 0)
(0.103088 -0.000406165 0)
(0.10317 -0.00038042 0)
(0.103244 -0.000347137 0)
(0.103309 -0.000305238 0)
(0.103363 -0.000253482 0)
(0.103405 -0.000190439 0)
(0.103433 -0.000114449 0)
(0.103446 -2.35739e-05 0)
(0.103443 8.4443e-05 0)
(0.103421 0.000212233 0)
(0.103379 0.000362901 0)
(0.103315 0.000540118 0)
(0.103227 0.000748241 0)
(0.103114 0.000992446 0)
(0.102974 0.00127889 0)
(0.102807 0.00161491 0)
(0.102613 0.00200921 0)
(0.102392 0.00247206 0)
(0.102147 0.0030155 0)
(0.101882 0.00365344 0)
(0.101608 0.00440155 0)
(0.101335 0.00527679 0)
(0.101084 0.00629636 0)
(0.100882 0.00747537 0)
(0.100766 0.00882294 0)
(0.10078 0.0103354 0)
(0.100977 0.0119866 0)
(0.101409 0.0137146 0)
(0.102109 0.0154099 0)
(0.103059 0.0169153 0)
(0.100006 -4.01727e-05 0)
(0.100037 -7.43876e-05 0)
(0.100085 -9.87612e-05 0)
(0.100143 -0.000112745 0)
(0.100205 -0.000115837 0)
(0.100267 -0.000108217 0)
(0.100322 -9.126e-05 0)
(0.100368 -6.76778e-05 0)
(0.100402 -4.11048e-05 0)
(0.100423 -1.53649e-05 0)
(0.100432 6.28249e-06 0)
(0.100433 2.16628e-05 0)
(0.100427 2.9855e-05 0)
(0.100418 3.10459e-05 0)
(0.100408 2.61859e-05 0)
(0.100401 1.65955e-05 0)
(0.100398 3.6295e-06 0)
(0.100399 -1.15436e-05 0)
(0.100406 -2.80443e-05 0)
(0.100419 -4.52927e-05 0)
(0.100437 -6.29617e-05 0)
(0.100462 -8.09098e-05 0)
(0.100493 -9.91104e-05 0)
(0.100529 -0.000117595 0)
(0.10057 -0.000136415 0)
(0.100617 -0.000155616 0)
(0.100669 -0.000175223 0)
(0.100726 -0.00019524 0)
(0.100788 -0.000215647 0)
(0.100855 -0.000236403 0)
(0.100926 -0.000257445 0)
(0.101001 -0.000278698 0)
(0.101081 -0.000300068 0)
(0.101164 -0.000321448 0)
(0.101251 -0.000342714 0)
(0.101341 -0.000363728 0)
(0.101435 -0.000384335 0)
(0.101531 -0.000404359 0)
(0.101629 -0.000423608 0)
(0.101729 -0.000441861 0)
(0.10183 -0.000458877 0)
(0.101933 -0.000474382 0)
(0.102036 -0.000488076 0)
(0.102139 -0.000499619 0)
(0.102241 -0.000508635 0)
(0.102342 -0.000514705 0)
(0.102441 -0.000517362 0)
(0.102537 -0.000516082 0)
(0.102629 -0.000510282 0)
(0.102718 -0.000499306 0)
(0.102801 -0.000482422 0)
(0.102879 -0.000458802 0)
(0.102949 -0.000427513 0)
(0.103012 -0.000387499 0)
(0.103066 -0.000337562 0)
(0.103109 -0.000276335 0)
(0.103141 -0.000202254 0)
(0.103161 -0.000113525 0)
(0.103168 -8.08002e-06 0)
(0.10316 0.000116454 0)
(0.103136 0.000262804 0)
(0.103095 0.000434136 0)
(0.103036 0.000634122 0)
(0.102959 0.000867019 0)
(0.102862 0.00113776 0)
(0.102748 0.00145204 0)
(0.102615 0.00181641 0)
(0.102466 0.00223835 0)
(0.102304 0.00272626 0)
(0.102134 0.00328946 0)
(0.101963 0.00393798 0)
(0.101802 0.00468216 0)
(0.101665 0.00553192 0)
(0.101571 0.00649547 0)
(0.101544 0.00757744 0)
(0.101611 0.00877584 0)
(0.101807 0.0100782 0)
(0.102163 0.0114563 0)
(0.102706 0.0128616 0)
(0.103446 0.0142224 0)
(0.104364 0.015449 0)
(0.100006 -4.6746e-05 0)
(0.100036 -8.69746e-05 0)
(0.100084 -0.000115728 0)
(0.100141 -0.000132476 0)
(0.100204 -0.000136607 0)
(0.100266 -0.000128285 0)
(0.100323 -0.000109048 0)
(0.100371 -8.19611e-05 0)
(0.100407 -5.11744e-05 0)
(0.100432 -2.10929e-05 0)
(0.100444 4.48767e-06 0)
(0.100448 2.29872e-05 0)
(0.100444 3.32566e-05 0)
(0.100437 3.54258e-05 0)
(0.100429 3.05236e-05 0)
(0.100422 2.00321e-05 0)
(0.100418 5.50028e-06 0)
(0.100418 -1.17162e-05 0)
(0.100424 -3.05799e-05 0)
(0.100435 -5.03915e-05 0)
(0.100452 -7.07426e-05 0)
(0.100474 -9.14411e-05 0)
(0.100502 -0.000112433 0)
(0.100535 -0.000133737 0)
(0.100574 -0.000155399 0)
(0.100617 -0.000177461 0)
(0.100666 -0.000199949 0)
(0.100719 -0.000222862 0)
(0.100777 -0.000246175 0)
(0.100839 -0.000269836 0)
(0.100905 -0.000293774 0)
(0.100975 -0.000317898 0)
(0.101049 -0.000342097 0)
(0.101126 -0.000366245 0)
(0.101207 -0.000390198 0)
(0.10129 -0.000413794 0)
(0.101376 -0.00043685 0)
(0.101464 -0.000459163 0)
(0.101554 -0.000480507 0)
(0.101645 -0.000500629 0)
(0.101737 -0.000519247 0)
(0.10183 -0.000536049 0)
(0.101923 -0.000550687 0)
(0.102015 -0.000562775 0)
(0.102106 -0.000571884 0)
(0.102196 -0.000577538 0)
(0.102283 -0.000579208 0)
(0.102368 -0.000576307 0)
(0.102448 -0.000568181 0)
(0.102525 -0.000554103 0)
(0.102596 -0.00053326 0)
(0.102661 -0.000504743 0)
(0.10272 -0.000467536 0)
(0.102771 -0.000420497 0)
(0.102813 -0.00036234 0)
(0.102847 -0.000291615 0)
(0.10287 -0.000206683 0)
(0.102883 -0.000105684 0)
(0.102883 1.34901e-05 0)
(0.102872 0.000153214 0)
(0.102847 0.000316178 0)
(0.102809 0.000505436 0)
(0.102758 0.00072445 0)
(0.102693 0.000977129 0)
(0.102616 0.00126786 0)
(0.102528 0.00160155 0)
(0.10243 0.00198358 0)
(0.102326 0.00241983 0)
(0.102221 0.00291652 0)
(0.10212 0.00348007 0)
(0.102032 0.00411675 0)
(0.101967 0.0048322 0)
(0.101938 0.00563072 0)
(0.101962 0.00651422 0)
(0.102056 0.00748083 0)
(0.102241 0.00852322 0)
(0.102538 0.00962655 0)
(0.102965 0.0107665 0)
(0.103536 0.011908 0)
(0.104249 0.0130059 0)
(0.105089 0.0140094 0)
(0.100005 -5.36467e-05 0)
(0.100035 -0.000100249 0)
(0.100082 -0.00013371 0)
(0.100139 -0.00015352 0)
(0.100202 -0.000158957 0)
(0.100265 -0.000150158 0)
(0.100323 -0.000128792 0)
(0.100373 -9.82552e-05 0)
(0.100413 -6.31932e-05 0)
(0.100441 -2.85891e-05 0)
(0.100457 1.20719e-06 0)
(0.100464 2.31786e-05 0)
(0.100463 3.59059e-05 0)
(0.100458 3.94224e-05 0)
(0.100451 3.48027e-05 0)
(0.100445 2.36703e-05 0)
(0.10044 7.75982e-06 0)
(0.10044 -1.13816e-05 0)
(0.100444 -3.25488e-05 0)
(0.100454 -5.49101e-05 0)
(0.100468 -7.79598e-05 0)
(0.100488 -0.000101442 0)
(0.100513 -0.000125264 0)
(0.100544 -0.000149423 0)
(0.100579 -0.000173953 0)
(0.100619 -0.00019889 0)
(0.100664 -0.000224253 0)
(0.100713 -0.000250039 0)
(0.100766 -0.000276211 0)
(0.100824 -0.000302711 0)
(0.100885 -0.000329455 0)
(0.100949 -0.000356336 0)
(0.101017 -0.000383227 0)
(0.101088 -0.00040998 0)
(0.101161 -0.000436431 0)
(0.101237 -0.000462391 0)
(0.101315 -0.000487652 0)
(0.101395 -0.00051198 0)
(0.101476 -0.000535116 0)
(0.101558 -0.000556773 0)
(0.101641 -0.000576632 0)
(0.101724 -0.00059434 0)
(0.101806 -0.000609506 0)
(0.101887 -0.000621698 0)
(0.101967 -0.000630437 0)
(0.102045 -0.000635197 0)
(0.10212 -0.000635394 0)
(0.102193 -0.000630383 0)
(0.102261 -0.000619452 0)
(0.102325 -0.000601814 0)
(0.102384 -0.000576594 0)
(0.102437 -0.000542824 0)
(0.102484 -0.00049943 0)
(0.102524 -0.000445217 0)
(0.102556 -0.000378855 0)
(0.10258 -0.000298861 0)
(0.102596 -0.000203583 0)
(0.102602 -9.11738e-05 0)
(0.102598 4.04177e-05 0)
(0.102585 0.000193459 0)
(0.102561 0.000370467 0)
(0.102528 0.000574232 0)
(0.102486 0.000807826 0)
(0.102435 0.00107461 0)
(0.102378 0.00137822 0)
(0.102316 0.00172254 0)
(0.102253 0.00211164 0)
(0.102191 0.00254967 0)
(0.102137 0.0030407 0)
(0.102096 0.0035885 0)
(0.102075 0.00419618 0)
(0.102086 0.00486579 0)
(0.102137 0.00559774 0)
(0.102242 0.00639011 0)
(0.102414 0.00723786 0)
(0.102665 0.00813197 0)
(0.103009 0.00905866 0)
(0.103454 0.00999893 0)
(0.104006 0.0109287 0)
(0.10466 0.0118199 0)
(0.105405 0.0126438 0)
(0.100005 -6.08816e-05 0)
(0.100035 -0.000114218 0)
(0.100081 -0.00015273 0)
(0.100137 -0.000175921 0)
(0.1002 -0.000182968 0)
(0.100263 -0.000173961 0)
(0.100323 -0.000150674 0)
(0.100375 -0.000116797 0)
(0.100418 -7.74436e-05 0)
(0.100449 -3.81651e-05 0)
(0.100469 -3.8762e-06 0)
(0.100479 2.19365e-05 0)
(0.100482 3.75397e-05 0)
(0.100479 4.28234e-05 0)
(0.100474 3.88703e-05 0)
(0.100468 2.74177e-05 0)
(0.100464 1.03745e-05 0)
(0.100463 -1.05222e-05 0)
(0.100466 -3.38882e-05 0)
(0.100473 -5.87466e-05 0)
(0.100486 -8.44789e-05 0)
(0.100503 -0.00011075 0)
(0.100526 -0.000137416 0)
(0.100553 -0.000164439 0)
(0.100585 -0.000191836 0)
(0.100622 -0.000219632 0)
(0.100662 -0.000247835 0)
(0.100707 -0.000276434 0)
(0.100756 -0.000305386 0)
(0.100808 -0.000334619 0)
(0.100864 -0.000364036 0)
(0.100922 -0.000393515 0)
(0.100984 -0.000422911 0)
(0.101048 -0.000452056 0)
(0.101114 -0.00048076 0)
(0.101183 -0.000508811 0)
(0.101252 -0.000535973 0)
(0.101324 -0.000561982 0)
(0.101396 -0.000586548 0)
(0.101468 -0.000609349 0)
(0.101541 -0.00063003 0)
(0.101613 -0.000648199 0)
(0.101684 -0.000663426 0)
(0.101755 -0.000675236 0)
(0.101823 -0.000683108 0)
(0.101889 -0.000686469 0)
(0.101952 -0.000684691 0)
(0.102012 -0.000677084 0)
(0.102068 -0.000662891 0)
(0.10212 -0.00064128 0)
(0.102167 -0.000611339 0)
(0.102209 -0.000572065 0)
(0.102245 -0.000522359 0)
(0.102274 -0.000461011 0)
(0.102297 -0.000386692 0)
(0.102312 -0.000297944 0)
(0.102321 -0.000193166 0)
(0.102321 -7.06035e-05 0)
(0.102315 7.16491e-05 0)
(0.102301 0.000235648 0)
(0.10228 0.000423626 0)
(0.102253 0.000637984 0)
(0.102221 0.000881276 0)
(0.102185 0.00115619 0)
(0.102148 0.0014655 0)
(0.102111 0.00181202 0)
(0.102079 0.00219847 0)
(0.102054 0.00262742 0)
(0.102042 0.00310105 0)
(0.10205 0.003621 0)
(0.102082 0.00418802 0)
(0.102147 0.00480176 0)
(0.102254 0.0054603 0)
(0.10241 0.00615986 0)
(0.102625 0.00689435 0)
(0.102906 0.00765511 0)
(0.10326 0.00843074 0)
(0.103692 0.00920717 0)
(0.104201 0.0099682 0)
(0.104785 0.0106966 0)
(0.105433 0.0113757 0)
(0.100005 -6.84527e-05 0)
(0.100034 -0.000128884 0)
(0.100079 -0.000172795 0)
(0.100135 -0.000199701 0)
(0.100197 -0.000208687 0)
(0.10026 -0.000199778 0)
(0.100321 -0.000174823 0)
(0.100375 -0.000137766 0)
(0.100421 -9.41523e-05 0)
(0.100455 -5.00814e-05 0)
(0.100479 -1.10402e-05 0)
(0.100493 1.89862e-05 0)
(0.100499 3.79056e-05 0)
(0.100498 4.54155e-05 0)
(0.100495 4.2562e-05 0)
(0.10049 3.11656e-05 0)
(0.100486 1.32919e-05 0)
(0.100485 -9.13532e-06 0)
(0.100487 -3.45484e-05 0)
(0.100493 -6.18041e-05 0)
(0.100503 -9.01612e-05 0)
(0.100518 -0.000119189 0)
(0.100538 -0.000148674 0)
(0.100562 -0.000178539 0)
(0.10059 -0.000208769 0)
(0.100623 -0.000239371 0)
(0.10066 -0.000270342 0)
(0.1007 -0.000301659 0)
(0.100744 -0.000333266 0)
(0.10079 -0.000365082 0)
(0.10084 -0.000396994 0)
(0.100893 -0.000428863 0)
(0.100948 -0.000460525 0)
(0.101005 -0.000491791 0)
(0.101063 -0.00052245 0)
(0.101124 -0.000552263 0)
(0.101185 -0.000580966 0)
(0.101247 -0.000608266 0)
(0.10131 -0.000633843 0)
(0.101373 -0.000657343 0)
(0.101435 -0.000678376 0)
(0.101497 -0.000696517 0)
(0.101557 -0.000711299 0)
(0.101616 -0.000722212 0)
(0.101673 -0.000728699 0)
(0.101727 -0.000730152 0)
(0.101778 -0.000725908 0)
(0.101826 -0.000715247 0)
(0.10187 -0.000697385 0)
(0.10191 -0.000671466 0)
(0.101946 -0.000636566 0)
(0.101976 -0.000591677 0)
(0.102002 -0.000535708 0)
(0.102021 -0.000467477 0)
(0.102035 -0.000385704 0)
(0.102044 -0.000289011 0)
(0.102046 -0.000175911 0)
(0.102043 -4.48129e-05 0)
(0.102035 0.000105966 0)
(0.102021 0.000278191 0)
(0.102004 0.000473729 0)
(0.101984 0.00069451 0)
(0.101962 0.000942507 0)
(0.101941 0.00121969 0)
(0.101921 0.00152796 0)
(0.101907 0.00186912 0)
(0.101901 0.00224469 0)
(0.101907 0.00265591 0)
(0.10193 0.00310349 0)
(0.101973 0.00358751 0)
(0.102043 0.00410721 0)
(0.102145 0.00466081 0)
(0.102286 0.00524532 0)
(0.102469 0.00585633 0)
(0.102702 0.00648798 0)
(0.102988 0.00713282 0)
(0.103331 0.00778198 0)
(0.103732 0.0084254 0)
(0.10419 0.00905228 0)
(0.1047 0.00965186 0)
(0.105258 0.0102145 0)
(0.100004 -7.63567e-05 0)
(0.100033 -0.000144235 0)
(0.100077 -0.000193891 0)
(0.100132 -0.000224851 0)
(0.100193 -0.000236116 0)
(0.100256 -0.000227635 0)
(0.100318 -0.000201297 0)
(0.100374 -0.00016126 0)
(0.100422 -0.000113458 0)
(0.100459 -6.45147e-05 0)
(0.100487 -2.04892e-05 0)
(0.100504 1.41102e-05 0)
(0.100512 3.67903e-05 0)
(0.100515 4.70061e-05 0)
(0.100513 4.57203e-05 0)
(0.10051 3.48016e-05 0)
(0.100506 1.64515e-05 0)
(0.100504 -7.22575e-06 0)
(0.100505 -3.44753e-05 0)
(0.100509 -6.39801e-05 0)
(0.100518 -9.48551e-05 0)
(0.10053 -0.000126558 0)
(0.100547 -0.000158795 0)
(0.100568 -0.000191433 0)
(0.100593 -0.000224418 0)
(0.100621 -0.000257731 0)
(0.100653 -0.000291353 0)
(0.100689 -0.000325243 0)
(0.100727 -0.000359336 0)
(0.100769 -0.000393533 0)
(0.100812 -0.000427708 0)
(0.100858 -0.000461705 0)
(0.100906 -0.00049534 0)
(0.100956 -0.000528405 0)
(0.101007 -0.000560662 0)
(0.101059 -0.00059185 0)
(0.101111 -0.000621677 0)
(0.101164 -0.000649826 0)
(0.101217 -0.000675945 0)
(0.10127 -0.000699652 0)
(0.101322 -0.000720528 0)
(0.101373 -0.000738118 0)
(0.101422 -0.000751925 0)
(0.101469 -0.000761414 0)
(0.101514 -0.000765998 0)
(0.101557 -0.000765049 0)
(0.101597 -0.000757884 0)
(0.101633 -0.000743768 0)
(0.101666 -0.000721908 0)
(0.101694 -0.000691454 0)
(0.101719 -0.00065149 0)
(0.101739 -0.000601037 0)
(0.101755 -0.00053905 0)
(0.101766 -0.000464413 0)
(0.101772 -0.000375943 0)
(0.101774 -0.000272389 0)
(0.101772 -0.000152434 0)
(0.101766 -1.47085e-05 0)
(0.101757 0.000142189 0)
(0.101745 0.000319692 0)
(0.101732 0.000519249 0)
(0.101718 0.000742295 0)
(0.101706 0.000990211 0)
(0.101697 0.00126428 0)
(0.101694 0.00156562 0)
(0.101698 0.00189513 0)
(0.101714 0.00225341 0)
(0.101743 0.00264064 0)
(0.101791 0.00305653 0)
(0.101859 0.00350017 0)
(0.101953 0.00396993 0)
(0.102077 0.00446339 0)
(0.102234 0.00497725 0)
(0.102428 0.00550729 0)
(0.102661 0.00604836 0)
(0.102937 0.0065945 0)
(0.103256 0.00713904 0)
(0.103618 0.00767488 0)
(0.104021 0.00819484 0)
(0.104463 0.00869212 0)
(0.104938 0.00916098 0)
(0.100004 -8.45827e-05 0)
(0.100032 -0.000160245 0)
(0.100075 -0.000215983 0)
(0.100129 -0.000251327 0)
(0.100189 -0.000265205 0)
(0.100252 -0.000257484 0)
(0.100313 -0.000230063 0)
(0.10037 -0.000187269 0)
(0.10042 -0.000135384 0)
(0.10046 -8.15285e-05 0)
(0.10049 -3.23237e-05 0)
(0.10051 7.17944e-06 0)
(0.100522 3.40484e-05 0)
(0.100526 4.74499e-05 0)
(0.100527 4.82175e-05 0)
(0.100524 3.823e-05 0)
(0.100521 1.98011e-05 0)
(0.100519 -4.79483e-06 0)
(0.100519 -3.36121e-05 0)
(0.100522 -6.51585e-05 0)
(0.100528 -9.83859e-05 0)
(0.100538 -0.000132626 0)
(0.100552 -0.000167491 0)
(0.100569 -0.000202777 0)
(0.10059 -0.000238385 0)
(0.100614 -0.00027426 0)
(0.100642 -0.00031036 0)
(0.100672 -0.000346627 0)
(0.100705 -0.000382978 0)
(0.10074 -0.0004193 0)
(0.100778 -0.000455449 0)
(0.100817 -0.000491254 0)
(0.100858 -0.00052651 0)
(0.100899 -0.000560989 0)
(0.100942 -0.000594432 0)
(0.100985 -0.000626553 0)
(0.101029 -0.000657038 0)
(0.101072 -0.000685543 0)
(0.101116 -0.000711692 0)
(0.101158 -0.000735077 0)
(0.101199 -0.000755257 0)
(0.101239 -0.000771754 0)
(0.101277 -0.00078405 0)
(0.101313 -0.000791591 0)
(0.101347 -0.000793778 0)
(0.101378 -0.000789972 0)
(0.101406 -0.000779488 0)
(0.101431 -0.000761595 0)
(0.101453 -0.000735514 0)
(0.101471 -0.000700421 0)
(0.101485 -0.000655442 0)
(0.101496 -0.000599655 0)
(0.101503 -0.000532094 0)
(0.101506 -0.000451749 0)
(0.101506 -0.000357569 0)
(0.101502 -0.000248471 0)
(0.101496 -0.000123351 0)
(0.101488 1.89047e-05 0)
(0.101479 0.000179389 0)
(0.101469 0.000359178 0)
(0.101459 0.000559302 0)
(0.101452 0.000780713 0)
(0.101449 0.00102425 0)
(0.10145 0.00129058 0)
(0.10146 0.00158019 0)
(0.101479 0.00189326 0)
(0.10151 0.0022297 0)
(0.101556 0.002589 0)
(0.101619 0.00297023 0)
(0.101703 0.00337193 0)
(0.10181 0.00379213 0)
(0.101943 0.00422826 0)
(0.102104 0.00467718 0)
(0.102296 0.00513517 0)
(0.102519 0.00559803 0)
(0.102775 0.00606112 0)
(0.103063 0.00651956 0)
(0.103384 0.00696835 0)
(0.103734 0.00740268 0)
(0.104113 0.00781819 0)
(0.104515 0.0082114 0)
(0.100003 -9.31119e-05 0)
(0.10003 -0.000176875 0)
(0.100072 -0.000239006 0)
(0.100125 -0.000279042 0)
(0.100183 -0.000295848 0)
(0.100245 -0.000289201 0)
(0.100307 -0.000260989 0)
(0.100364 -0.000215668 0)
(0.100414 -0.00015983 0)
(0.100456 -0.000101055 0)
(0.100488 -4.65185e-05 0)
(0.100511 -1.82249e-06 0)
(0.100525 2.96303e-05 0)
(0.100532 4.66779e-05 0)
(0.100534 4.99823e-05 0)
(0.100532 4.13965e-05 0)
(0.10053 2.33196e-05 0)