/*--------------------------------*- C++ -*----------------------------------*\
| =========                 |                                                 |
| \\      /  F ield         | OpenFOAM: The Open Source CFD Toolbox           |
|  \\    /   O peration     | Version:  2106                                  |
|   \\  /    A nd           | Website:  www.openfoam.com                      |
|    \\/     M anipulation  |                                                 |
\*---------------------------------------------------------------------------*/
FoamFile
{
    version     2.0;
    format      ascii;
    arch        "LSB;label=32;scalar=64";
    class       surfaceScalarField;
    location    "2.6";
    object      phi;
}
// * * * * * * * * * * * * * * * * * * * * * * * * * * * * * * * * * * * * * //

dimensions      [1 0 -1 0 0 0 0];

oriented        oriented;

internalField   nonuniform List<scalar> 
23692
(
9.31426e-05
-6.30694e-08
9.32567e-05
-1.14042e-07
9.34155e-05
-1.58586e-07
9.36126e-05
-1.96864e-07
9.38432e-05
-2.30294e-07
9.41033e-05
-2.59765e-07
9.43896e-05
-2.85877e-07
9.46992e-05
-3.09109e-07
9.50296e-05
-3.29827e-07
9.53785e-05
-3.48319e-07
9.57439e-05
-3.648e-07
9.61241e-05
-3.79448e-07
9.65173e-05
-3.92404e-07
9.69219e-05
-4.03788e-07
9.73365e-05
-4.13712e-07
9.77597e-05
-4.22291e-07
9.81903e-05
-4.29639e-07
9.86272e-05
-4.35882e-07
9.90694e-05
-4.4116e-07
9.95161e-05
-4.45618e-07
9.99667e-05
-4.49403e-07
0.000100421
-4.52667e-07
0.000100877
-4.5555e-07
0.000101337
-4.58181e-07
0.000101799
-4.6067e-07
0.000102263
-4.63104e-07
0.00010273
-4.65551e-07
0.000103199
-4.6805e-07
0.000103671
-4.70618e-07
0.000104146
-4.7325e-07
0.000104623
-4.75922e-07
0.000105103
-4.78595e-07
0.000105586
-4.81215e-07
0.000106071
-4.8372e-07
0.000106558
-4.86044e-07
0.000107048
-4.88112e-07
0.000107539
-4.8985e-07
0.000108032
-4.91184e-07
0.000108525
-4.92038e-07
0.000109019
-4.92341e-07
0.000109512
-4.92021e-07
0.000110005
-4.91007e-07
0.000110496
-4.89232e-07
0.000110984
-4.86623e-07
0.000111468
-4.83114e-07
0.000111948
-4.78631e-07
0.000112423
-4.73099e-07
0.00011289
-4.66438e-07
0.00011335
-4.58562e-07
0.000113801
-4.49375e-07
0.000114241
-4.38772e-07
0.000114669
-4.26633e-07
0.000115083
-4.12821e-07
0.000115482
-3.97181e-07
0.000115863
-3.79527e-07
0.000116224
-3.59647e-07
0.000116562
-3.37288e-07
0.000116876
-3.12149e-07
0.000117161
-2.83868e-07
0.000117414
-2.52011e-07
0.000117631
-2.16044e-07
0.000117808
-1.75317e-07
0.000117938
-1.29019e-07
0.000118015
-7.61364e-08
0.000118032
-1.53888e-08
0.000117978
5.49008e-08
0.000117842
1.36945e-07
0.00011761
2.3369e-07
0.000117262
3.49114e-07
0.000116774
4.88717e-07
0.000116115
6.60269e-07
0.000115241
8.75005e-07
0.000114092
1.14958e-06
0.000112584
1.50935e-06
0.000110591
1.99386e-06
0.000107926
2.66641e-06
0.000104297
3.62999e-06
9.92416e-05
5.05608e-06
9.19922e-05
7.25037e-06
8.11759e-05
1.08173e-05
1.74244e-05
6.37524e-05
9.96651e-05
-1.29021e-07
9.97867e-05
-2.35472e-07
9.99561e-05
-3.27828e-07
0.000100167
-4.07038e-07
0.000100413
-4.76235e-07
0.000100691
-5.37227e-07
0.000100996
-5.9126e-07
0.000101327
-6.39331e-07
0.00010168
-6.82194e-07
0.000102053
-7.20439e-07
0.000102443
-7.54526e-07
0.000102849
-7.84816e-07
0.00010327
-8.116e-07
0.000103702
-8.3513e-07
0.000104145
-8.55638e-07
0.000104597
-8.73354e-07
0.000105057
-8.8852e-07
0.000105523
-9.01401e-07
0.000105995
-9.12278e-07
0.000106472
-9.21455e-07
0.000106953
-9.2924e-07
0.000107438
-9.35942e-07
0.000107926
-9.41852e-07
0.000108416
-9.47238e-07
0.000108909
-9.52326e-07
0.000109405
-9.57301e-07
0.000109903
-9.62298e-07
0.000110403
-9.67403e-07
0.000110907
-9.72649e-07
0.000111413
-9.78024e-07
0.000111922
-9.83483e-07
0.000112434
-9.88942e-07
0.000112949
-9.94292e-07
0.000113466
-9.99406e-07
0.000113985
-1.00414e-06
0.000114507
-1.00835e-06
0.000115031
-1.01187e-06
0.000115556
-1.01456e-06
0.000116081
-1.01626e-06
0.000116607
-1.01681e-06
0.000117133
-1.01608e-06
0.000117657
-1.01391e-06
0.00011818
-1.01017e-06
0.0001187
-1.00471e-06
0.000119215
-9.97387e-07
0.000119726
-9.88051e-07
0.000120231
-9.76551e-07
0.000120729
-9.62721e-07
0.000121218
-9.46382e-07
0.000121698
-9.27343e-07
0.000122166
-9.05383e-07
0.000122621
-8.80259e-07
0.000123061
-8.51693e-07
0.000123485
-8.19364e-07
0.000123889
-7.82901e-07
0.000124273
-7.41866e-07
0.000124633
-6.95747e-07
0.000124966
-6.43935e-07
0.000125269
-5.85701e-07
0.000125539
-5.20162e-07
0.00012577
-4.46252e-07
0.000125959
-3.6266e-07
0.000126099
-2.67768e-07
0.000126183
-1.59557e-07
0.000126205
-3.54812e-08
0.000126153
1.07738e-07
0.000126017
2.74406e-07
0.000125782
4.70202e-07
0.000125429
7.02717e-07
0.000124937
9.82283e-07
0.000124275
1.32323e-06
0.000123405
1.74582e-06
0.000122277
2.27921e-06
0.000120821
2.96614e-06
0.000118946
3.87017e-06
0.000116527
5.08648e-06
0.000113401
6.75634e-06
0.000109375
9.0834e-06
0.000104277
1.235e-05
9.82375e-05
1.68574e-05
2.22737e-05
9.33892e-05
0.000106644
-1.97557e-07
0.000106773
-3.64254e-07
0.000106953
-5.07694e-07
0.000107177
-6.30793e-07
0.000107439
-7.38278e-07
0.000107736
-8.32985e-07
0.000108062
-9.16866e-07
0.000108414
-9.91468e-07
0.000108791
-1.05798e-06
0.000109188
-1.1173e-06
0.000109605
-1.17016e-06
0.000110038
-1.21712e-06
0.000110486
-1.25863e-06
0.000110947
-1.29508e-06
0.000111419
-1.32683e-06
0.000111901
-1.35424e-06
0.000112391
-1.37769e-06
0.000112888
-1.39758e-06
0.000113392
-1.41436e-06
0.0001139
-1.42848e-06
0.000114412
-1.44044e-06
0.000114929
-1.45071e-06
0.000115448
-1.45974e-06
0.00011597
-1.46795e-06
0.000116495
-1.47569e-06
0.000117022
-1.48325e-06
0.000117552
-1.49084e-06
0.000118085
-1.49858e-06
0.00011862
-1.50654e-06
0.000119159
-1.5147e-06
0.0001197
-1.52299e-06
0.000120244
-1.53127e-06
0.00012079
-1.53938e-06
0.00012134
-1.54712e-06
0.000121891
-1.55428e-06
0.000122445
-1.56061e-06
0.000123001
-1.56588e-06
0.000123558
-1.56986e-06
0.000124116
-1.5723e-06
0.000124673
-1.57296e-06
0.000125231
-1.57164e-06
0.000125786
-1.56808e-06
0.00012634
-1.56209e-06
0.00012689
-1.55344e-06
0.000127436
-1.5419e-06
0.000127977
-1.52725e-06
0.000128511
-1.50924e-06
0.000129038
-1.48764e-06
0.000129555
-1.46217e-06
0.000130062
-1.43252e-06
0.000130557
-1.39837e-06
0.000131037
-1.35934e-06
0.000131502
-1.31502e-06
0.000131949
-1.26491e-06
0.000132376
-1.20846e-06
0.000132781
-1.145e-06
0.00013316
-1.07376e-06
0.000133512
-9.9383e-07
0.000133831
-9.04118e-07
0.000134116
-8.03312e-07
0.000134361
-6.89825e-07
0.000134561
-5.61724e-07
0.000134712
-4.16632e-07
0.000134805
-2.51604e-07
0.000134834
-6.29531e-08
0.000134789
1.53993e-07
0.000134659
4.05286e-07
0.000134432
6.98804e-07
0.000134091
1.0449e-06
0.000133617
1.45733e-06
0.000132987
1.95468e-06
0.000132172
2.5623e-06
0.000131137
3.31512e-06
0.000129843
4.26163e-06
0.000128245
5.46898e-06
0.000126304
7.02871e-06
0.000124001
9.06016e-06
0.000121383
1.17031e-05
0.000118656
1.50779e-05
0.000116387
1.91275e-05
2.31153e-05
0.000115546
0.000114111
-2.68586e-07
0.000114247
-5.00175e-07
0.000114438
-6.98191e-07
0.000114676
-8.68324e-07
0.000114955
-1.0168e-06
0.00011527
-1.14756e-06
0.000115617
-1.26333e-06
0.000115992
-1.36625e-06
0.000116393
-1.45798e-06
0.000116816
-1.53977e-06
0.000117259
-1.61262e-06
0.00011772
-1.67731e-06
0.000118197
-1.73445e-06
0.000118688
-1.78461e-06
0.00011919
-1.82827e-06
0.000119703
-1.86593e-06
0.000120225
-1.8981e-06
0.000120754
-1.92535e-06
0.000121289
-1.94829e-06
0.000121829
-1.96756e-06
0.000122374
-1.98382e-06
0.000122923
-1.99774e-06
0.000123474
-2.00993e-06
0.000124029
-2.02097e-06
0.000124586
-2.03134e-06
0.000125146
-2.04146e-06
0.000125708
-2.05159e-06
0.000126273
-2.06194e-06
0.000126841
-2.07257e-06
0.000127411
-2.08346e-06
0.000127984
-2.09452e-06
0.00012856
-2.10557e-06
0.000129139
-2.11638e-06
0.00012972
-2.12668e-06
0.000130304
-2.13616e-06
0.00013089
-2.14451e-06
0.000131477
-2.15139e-06
0.000132065
-2.15648e-06
0.000132654
-2.15946e-06
0.000133243
-2.16e-06
0.000133831
-2.15778e-06
0.000134417
-2.15252e-06
0.000135001
-2.14388e-06
0.000135581
-2.13159e-06
0.000136156
-2.11534e-06
0.000136725
-2.09481e-06
0.000137287
-2.06968e-06
0.000137841
-2.03961e-06
0.000138385
-2.00424e-06
0.000138917
-1.96316e-06
0.000139436
-1.91592e-06
0.00013994
-1.86203e-06
0.000140428
-1.80092e-06
0.000140897
-1.73194e-06
0.000141344
-1.65435e-06
0.000141768
-1.56727e-06
0.000142165
-1.46968e-06
0.000142534
-1.36039e-06
0.000142869
-1.23796e-06
0.000143168
-1.1007e-06
0.000143426
-9.46552e-07
0.000143639
-7.73043e-07
0.000143801
-5.7715e-07
0.000143906
-3.5516e-07
0.000143947
-1.02487e-07
0.000143916
1.86571e-07
0.000143803
5.19252e-07
0.000143598
9.04812e-07
0.000143289
1.35511e-06
0.000142863
1.88545e-06
0.000142303
2.51573e-06
0.000141595
3.27188e-06
0.000140723
4.18768e-06
0.000139679
5.30685e-06
0.000138465
6.68468e-06
0.000137107
8.38799e-06
0.000135679
1.04894e-05
0.000134335
1.30481e-05
0.000133354
1.60599e-05
0.00013314
1.93425e-05
2.23164e-05
0.00013394
0.000122102
-3.42103e-07
0.000122245
-6.43064e-07
0.000122446
-8.99294e-07
0.000122698
-1.11975e-06
0.000122993
-1.31208e-06
0.000123328
-1.48136e-06
0.000123696
-1.63119e-06
0.000124095
-1.76433e-06
0.00012452
-1.88293e-06
0.00012497
-1.98864e-06
0.000125441
-2.08274e-06
0.000125931
-2.16624e-06
0.000126437
-2.23997e-06
0.000126959
-2.30462e-06
0.000127492
-2.36085e-06
0.000128037
-2.40929e-06
0.000128591
-2.45062e-06
0.000129152
-2.48556e-06
0.00012972
-2.51489e-06
0.000130294
-2.53945e-06
0.000130871
-2.56009e-06
0.000131453
-2.57767e-06
0.000132037
-2.59298e-06
0.000132625
-2.60679e-06
0.000133215
-2.6197e-06
0.000133807
-2.63225e-06
0.000134402
-2.64481e-06
0.000135
-2.65761e-06
0.0001356
-2.67076e-06
0.000136202
-2.68424e-06
0.000136807
-2.69792e-06
0.000137415
-2.71158e-06
0.000138026
-2.72491e-06
0.000138638
-2.73757e-06
0.000139253
-2.74918e-06
0.00013987
-2.75932e-06
0.000140488
-2.76756e-06
0.000141107
-2.7735e-06
0.000141726
-2.77669e-06
0.000142345
-2.77675e-06
0.000142962
-2.77325e-06
0.000143577
-2.76582e-06
0.000144189
-2.75405e-06
0.000144797
-2.73758e-06
0.0001454
-2.71601e-06
0.000145996
-2.68894e-06
0.000146584
-2.65597e-06
0.000147163
-2.61667e-06
0.000147731
-2.57057e-06
0.000148286
-2.51718e-06
0.000148828
-2.45592e-06
0.000149354
-2.38619e-06
0.000149862
-2.30729e-06
0.00015035
-2.2184e-06
0.000150816
-2.11862e-06
0.000151258
-2.00687e-06
0.000151672
-1.88194e-06
0.000152055
-1.74235e-06
0.000152405
-1.58641e-06
0.000152718
-1.41208e-06
0.00015299
-1.21695e-06
0.000153217
-9.9813e-07
0.000153394
-7.52121e-07
0.000153515
-4.74696e-07
0.000153574
-1.60714e-07
0.000153566
1.96068e-07
0.000153484
6.03366e-07
0.000153319
1.07081e-06
0.000153065
1.61036e-06
0.000152715
2.23685e-06
0.000152264
2.96871e-06
0.000151708
3.8286e-06
0.000151053
4.84409e-06
0.000150314
6.04778e-06
0.000149523
7.47639e-06
0.000148746
9.16726e-06
0.000148087
1.11496e-05
0.00014771
1.34261e-05
0.000147834
1.59371e-05
0.000148675
1.85024e-05
2.07474e-05
0.000150246
0.000130651
-4.18145e-07
0.000130801
-7.92814e-07
0.000131013
-1.11097e-06
0.000131279
-1.38515e-06
0.000131592
-1.62432e-06
0.000131945
-1.83474e-06
0.000132336
-2.0209e-06
0.000132758
-2.18624e-06
0.00013321
-2.33345e-06
0.000133686
-2.46458e-06
0.000134186
-2.58123e-06
0.000134705
-2.68468e-06
0.000135242
-2.77594e-06
0.000135795
-2.8559e-06
0.00013636
-2.92536e-06
0.000136938
-2.98511e-06
0.000137524
-3.03599e-06
0.000138119
-3.0789e-06
0.00013872
-3.11482e-06
0.000139327
-3.14476e-06
0.000139939
-3.1698e-06
0.000140554
-3.19098e-06
0.000141172
-3.20933e-06
0.000141792
-3.22574e-06
0.000142415
-3.24101e-06
0.000143041
-3.25578e-06
0.000143668
-3.27052e-06
0.000144298
-3.28553e-06
0.00014493
-3.30095e-06
0.000145565
-3.31675e-06
0.000146201
-3.33277e-06
0.00014684
-3.34874e-06
0.000147482
-3.3643e-06
0.000148125
-3.37902e-06
0.00014877
-3.39242e-06
0.000149417
-3.404e-06
0.000150065
-3.41323e-06
0.000150713
-3.41959e-06
0.000151361
-3.42258e-06
0.000152008
-3.42167e-06
0.000152653
-3.41638e-06
0.000153295
-3.40622e-06
0.000153934
-3.39072e-06
0.000154568
-3.36941e-06
0.000155196
-3.34182e-06
0.000155816
-3.30747e-06
0.000156428
-3.26587e-06
0.00015703
-3.2165e-06
0.00015762
-3.15881e-06
0.000158197
-3.09219e-06
0.000158759
-3.01599e-06
0.000159304
-2.92948e-06
0.00015983
-2.83184e-06
0.000160336
-2.72213e-06
0.000160818
-2.59928e-06
0.000161276
-2.46209e-06
0.000161705
-2.30913e-06
0.000162103
-2.13877e-06
0.000162467
-1.94909e-06
0.000162795
-1.73783e-06
0.000163082
-1.50235e-06
0.000163325
-1.2395e-06
0.00016352
-9.45562e-07
0.000163663
-6.161e-07
0.00016375
-2.45835e-07
0.000163776
1.71471e-07
0.000163738
6.43265e-07
0.000163631
1.17853e-06
0.000163455
1.78802e-06
0.000163209
2.48445e-06
0.000162897
3.28271e-06
0.000162527
4.19986e-06
0.000162118
5.25481e-06
0.0001617
6.46736e-06
0.000161321
7.85606e-06
0.000161056
9.434e-06
0.000161006
1.12013e-05
0.000161301
1.31324e-05
0.000162082
1.51574e-05
0.000163448
1.71381e-05
1.88531e-05
0.000165343
0.0001398
-4.9679e-07
0.000139956
-9.49336e-07
0.000140179
-1.33319e-06
0.000140459
-1.66454e-06
0.000140788
-1.95366e-06
0.000141162
-2.20794e-06
0.000141575
-2.4328e-06
0.000142022
-2.63242e-06
0.000142499
-2.81004e-06
0.000143003
-2.96815e-06
0.000143532
-3.1087e-06
0.000144082
-3.23324e-06
0.00014465
-3.34301e-06
0.000145234
-3.43908e-06
0.000145833
-3.52241e-06
0.000146443
-3.59399e-06
0.000147063
-3.6548e-06
0.000147692
-3.70594e-06
0.000148327
-3.74858e-06
0.000148968
-3.78395e-06
0.000149613
-3.81334e-06
0.000150262
-3.83802e-06
0.000150914
-3.85919e-06
0.000151568
-3.87797e-06
0.000152224
-3.89531e-06
0.000152882
-3.91198e-06
0.000153542
-3.92856e-06
0.000154204
-3.94541e-06
0.000154868
-3.9627e-06
0.000155533
-3.98041e-06
0.000156201
-3.99836e-06
0.000156871
-4.01623e-06
0.000157542
-4.03358e-06
0.000158215
-4.0499e-06
0.000158889
-4.06463e-06
0.000159565
-4.07715e-06
0.00016024
-4.08686e-06
0.000160916
-4.09311e-06
0.000161591
-4.09531e-06
0.000162264
-4.09283e-06
0.000162935
-4.0851e-06
0.000163603
-4.07154e-06
0.000164266
-4.05159e-06
0.000164923
-4.02469e-06
0.000165574
-3.9903e-06
0.000166216
-3.94785e-06
0.000166849
-3.89677e-06
0.000167471
-3.83646e-06
0.000168081
-3.76628e-06
0.000168676
-3.68556e-06
0.000169256
-3.59353e-06
0.000169818
-3.48938e-06
0.00017036
-3.37219e-06
0.000170881
-3.24093e-06
0.000171378
-3.09442e-06
0.000171849
-2.93133e-06
0.000172292
-2.75014e-06
0.000172704
-2.54909e-06
0.000173083
-2.32614e-06
0.000173426
-2.07897e-06
0.000173731
-1.80483e-06
0.000173993
-1.50056e-06
0.000174212
-1.16247e-06
0.000174384
-7.86247e-07
0.000174507
-3.66922e-07
0.000174579
1.01196e-07
0.000174599
6.2472e-07
0.000174568
1.21102e-06
0.000174489
1.86872e-06
0.000174368
2.60739e-06
0.000174215
3.43738e-06
0.000174047
4.36939e-06
0.00017389
5.41371e-06
0.00017378
6.57891e-06
0.000173768
7.86961e-06
0.00017392
9.28316e-06
0.000174318
1.08048e-05
0.000175051
1.24007e-05
0.000176199
1.40106e-05
0.000177798
1.55407e-05
1.68666e-05
0.000179786
0.000149589
-5.78144e-07
0.000149752
-1.11258e-06
0.000149985
-1.56592e-06
0.000150279
-1.95793e-06
0.000150626
-2.30014e-06
0.00015102
-2.60108e-06
0.000151455
-2.86711e-06
0.000151926
-3.10316e-06
0.00015243
-3.31304e-06
0.000152963
-3.49975e-06
0.000153521
-3.66559e-06
0.000154101
-3.81239e-06
0.000154701
-3.94165e-06
0.000155318
-4.05463e-06
0.000155949
-4.15249e-06
0.000156593
-4.23637e-06
0.000157247
-4.30747e-06
0.00015791
-4.36705e-06
0.00015858
-4.4165e-06
0.000159255
-4.45729e-06
0.000159934
-4.49092e-06
0.000160617
-4.51888e-06
0.000161302
-4.54261e-06
0.00016199
-4.56341e-06
0.000162679
-4.58241e-06
0.000163369
-4.60054e-06
0.000164061
-4.61848e-06
0.000164755
-4.63666e-06
0.000165449
-4.6553e-06
0.000166146
-4.67438e-06
0.000166843
-4.6937e-06
0.000167542
-4.71288e-06
0.000168242
-4.73143e-06
0.000168943
-4.74875e-06
0.000169645
-4.76419e-06
0.000170347
-4.77702e-06
0.000171049
-4.78654e-06
0.000171751
-4.792e-06
0.00017245
-4.7927e-06
0.000173148
-4.78792e-06
0.000173842
-4.77699e-06
0.000174532
-4.75924e-06
0.000175217
-4.73402e-06
0.000175895
-4.70069e-06
0.000176565
-4.65864e-06
0.000177227
-4.6072e-06
0.000177878
-4.54576e-06
0.000178518
-4.47362e-06
0.000179144
-4.39009e-06
0.000179755
-4.29441e-06
0.000180349
-4.18577e-06
0.000180925
-4.06327e-06
0.000181481
-3.92593e-06
0.000182015
-3.77265e-06
0.000182525
-3.60221e-06
0.000183009
-3.41322e-06
0.000183465
-3.20411e-06
0.000183891
-2.97311e-06
0.000184285
-2.7182e-06
0.000184645
-2.43708e-06
0.000184969
-2.12712e-06
0.000185256
-1.78535e-06
0.000185504
-1.40837e-06
0.000185712
-9.92345e-07
0.00018588
-5.32945e-07
0.000186009
-2.56886e-08
0.0001861
5.35303e-07
0.000186158
1.15464e-06
0.00018619
1.83861e-06
0.000186206
2.59326e-06
0.000186221
3.42436e-06
0.000186255
4.33683e-06
0.000186336
5.33394e-06
0.000186501
6.41607e-06
0.000186793
7.57915e-06
0.000187265
8.81256e-06
0.000187975
1.00966e-05
0.000188977
1.13998e-05
0.000190313
1.26766e-05
0.000191987
1.38677e-05
1.49046e-05
0.000193951
0.000160063
-6.62305e-07
0.000160234
-1.2825e-06
0.000160477
-1.80912e-06
0.000160785
-2.26524e-06
0.000161149
-2.66376e-06
0.000161563
-3.01421e-06
0.00016202
-3.32392e-06
0.000162516
-3.59858e-06
0.000163047
-3.84266e-06
0.000163608
-4.0596e-06
0.000164196
-4.25213e-06
0.000164807
-4.42239e-06
0.000165439
-4.57212e-06
0.000166088
-4.70282e-06
0.000166753
-4.81583e-06
0.000167431
-4.91248e-06
0.000168119
-4.99417e-06
0.000168816
-5.06237e-06
0.00016952
-5.11868e-06
0.000170229
-5.1648e-06
0.000170943
-5.20247e-06
0.00017166
-5.23343e-06
0.000172378
-5.25934e-06
0.000173099
-5.28171e-06
0.00017382
-5.30187e-06
0.000174543
-5.32088e-06
0.000175266
-5.33956e-06
0.00017599
-5.35843e-06
0.000176715
-5.37773e-06
0.000177441
-5.39748e-06
0.000178167
-5.41744e-06
0.000178893
-5.4372e-06
0.000179621
-5.4562e-06
0.000180348
-5.47375e-06
0.000181075
-5.48911e-06
0.000181802
-5.50145e-06
0.000182528
-5.50996e-06
0.000183252
-5.5138e-06
0.000183974
-5.51215e-06
0.000184693
-5.50421e-06
0.000185408
-5.48919e-06
0.000186117
-5.46635e-06
0.000186821
-5.43495e-06
0.000187517
-5.39428e-06
0.000188204
-5.34364e-06
0.000188882
-5.28232e-06
0.000189548
-5.20961e-06
0.000190202
-5.12479e-06
0.000190841
-5.02709e-06
0.000191465
-4.91572e-06
0.000192071
-4.78982e-06
0.000192659
-4.64846e-06
0.000193226
-4.49063e-06
0.00019377
-4.31521e-06
0.000194291
-4.12099e-06
0.000194787
-3.90659e-06
0.000195256
-3.6705e-06
0.000195696
-3.41103e-06
0.000196106
-3.12627e-06
0.000196485
-2.81413e-06
0.000196832
-2.47227e-06
0.000197147
-2.0981e-06
0.00019743
-1.68876e-06
0.000197681
-1.24114e-06
0.000197902
-7.51904e-07
0.000198095
-2.17549e-07
0.000198267
3.65574e-07
0.000198423
1.00056e-06
0.000198573
1.69069e-06
0.000198729
2.43877e-06
0.000198909
3.24668e-06
0.000199133
4.11491e-06
0.000199427
5.04183e-06
0.000199821
6.02295e-06
0.000200352
7.04994e-06
0.000201057
8.1096e-06
0.000201972
9.18298e-06
0.000203129
1.02447e-05
0.000204545
1.1263e-05
0.000206212
1.22016e-05
1.30233e-05
0.000208095
0.000171272
-7.49353e-07
0.000171448
-1.45904e-06
0.000171702
-2.0627e-06
0.000172024
-2.58637e-06
0.000172405
-3.04438e-06
0.000172838
-3.44722e-06
0.000173319
-3.80315e-06
0.000173839
-4.11867e-06
0.000174397
-4.39886e-06
0.000174986
-4.64772e-06
0.000175603
-4.86835e-06
0.000176246
-5.06326e-06
0.000176909
-5.23444e-06
0.000177592
-5.38363e-06
0.00017829
-5.51239e-06
0.000179001
-5.62225e-06
0.000179724
-5.7148e-06
0.000180455
-5.79174e-06
0.000181193
-5.8549e-06
0.000181936
-5.9062e-06
0.000182684
-5.94765e-06
0.000183434
-5.98123e-06
0.000184185
-6.00883e-06
0.000184938
-6.03221e-06
0.000185691
-6.05288e-06
0.000186445
-6.07207e-06
0.000187199
-6.09073e-06
0.000187952
-6.10948e-06
0.000188706
-6.12861e-06
0.000189459
-6.14815e-06
0.000190212
-6.16787e-06
0.000190964
-6.18729e-06
0.000191717
-6.20581e-06
0.000192468
-6.22265e-06
0.000193219
-6.23697e-06
0.000193968
-6.24787e-06
0.000194715
-6.2544e-06
0.000195459
-6.25564e-06
0.0001962
-6.25066e-06
0.000196937
-6.23855e-06
0.000197669
-6.21846e-06
0.000198395
-6.18953e-06
0.000199114
-6.15096e-06
0.000199824
-6.10197e-06
0.000200525
-6.04179e-06
0.000201215
-5.96966e-06
0.000201893
-5.88483e-06
0.000202557
-5.78653e-06
0.000203206
-5.67396e-06
0.000203839
-5.54631e-06
0.000204455
-5.40271e-06
0.000205051
-5.24223e-06
0.000205627
-5.06389e-06
0.000206181
-4.86662e-06
0.000206711
-4.64924e-06
0.000207218
-4.41049e-06
0.000207699
-4.14899e-06
0.000208153
-3.86322e-06
0.000208581
-3.55155e-06
0.000208981
-3.2122e-06
0.000209354
-2.84326e-06
0.000209701
-2.44269e-06
0.000210023
-2.00835e-06
0.000210322
-1.53802e-06
0.000210602
-1.02949e-06
0.000210867
-4.80567e-07
0.000211124
1.10763e-07
0.000211381
7.45778e-07
0.000211648
1.42518e-06
0.00021194
2.14917e-06
0.000212272
2.91677e-06
0.000212663
3.72554e-06
0.000213136
4.57107e-06
0.000213714
5.44662e-06
0.000214423
6.34265e-06
0.000215288
7.24655e-06
0.000216331
8.14248e-06
0.000217566
9.01158e-06
0.000218998
9.83276e-06
0.000220617
1.05841e-05
1.12458e-05
0.000222396
0.000183264
-8.39345e-07
0.000183448
-1.6421e-06
0.000183712
-2.32649e-06
0.000184047
-2.92112e-06
0.000184445
-3.44177e-06
0.000184898
-3.89985e-06
0.000185401
-4.30454e-06
0.000185946
-4.66314e-06
0.00018653
-4.98139e-06
0.000187147
-5.26382e-06
0.000187794
-5.51398e-06
0.000188467
-5.7347e-06
0.000189162
-5.9283e-06
0.000189877
-6.09674e-06
0.000190608
-6.24182e-06
0.000191353
-6.36528e-06
0.000192109
-6.46892e-06
0.000192874
-6.55466e-06
0.000193645
-6.62458e-06
0.000194422
-6.68084e-06
0.000195202
-6.72571e-06
0.000195985
-6.76143e-06
0.000196769
-6.79015e-06
0.000197553
-6.81385e-06
0.000198337
-6.83425e-06
0.00019912
-6.85278e-06
0.000199902
-6.87051e-06
0.000200684
-6.88816e-06
0.000201464
-6.90612e-06
0.000202243
-6.92441e-06
0.00020302
-6.9428e-06
0.000203797
-6.9608e-06
0.000204571
-6.97773e-06
0.000205344
-6.99275e-06
0.000206115
-7.00492e-06
0.000206883
-7.01323e-06
0.000207648
-7.01666e-06
0.00020841
-7.01417e-06
0.000209166
-7.00473e-06
0.000209918
-6.98736e-06
0.000210664
-6.96108e-06
0.000211402
-6.925e-06
0.000212132
-6.87822e-06
0.000212853
-6.81991e-06
0.000213563
-6.74924e-06
0.000214262
-6.66542e-06
0.000214947
-6.56766e-06
0.000215619
-6.45518e-06
0.000216275
-6.32718e-06
0.000216914
-6.18286e-06
0.000217535
-6.02138e-06
0.000218137
-5.84185e-06
0.00021872
-5.64335e-06
0.000219281
-5.42491e-06
0.000219819
-5.1855e-06
0.000220335
-4.92401e-06
0.000220828
-4.63928e-06
0.000221298
-4.33008e-06
0.000221744
-3.99511e-06
0.000222167
-3.63303e-06
0.000222569
-3.24246e-06
0.00022295
-2.82204e-06
0.000223315
-2.3704e-06
0.000223666
-1.88629e-06
0.000224007
-1.3686e-06
0.000224345
-8.16464e-07
0.000224687
-2.29264e-07
0.000225043
3.92903e-07
0.000225421
1.04878e-06
0.000225836
1.73663e-06
0.000226301
2.4537e-06
0.000226833
3.19593e-06
0.000227448
3.95781e-06
0.000228165
4.73212e-06
0.000229
5.50991e-06
0.000229968
6.28051e-06
0.00023108
7.03174e-06
0.000232344
7.7503e-06
0.000233756
8.42253e-06
0.000235306
9.03551e-06
9.57862e-06
0.000236976
0.000196097
-9.32291e-07
0.000196287
-1.83153e-06
0.000196561
-2.60025e-06
0.000196909
-3.26916e-06
0.000197324
-3.85551e-06
0.000197796
-4.37164e-06
0.00019832
-4.82759e-06
0.00019889
-5.23147e-06
0.000199499
-5.5897e-06
0.000200144
-5.90733e-06
0.00020082
-6.18838e-06
0.000201522
-6.43607e-06
0.000202249
-6.653e-06
0.000202995
-6.84141e-06
0.000203758
-7.00333e-06
0.000204536
-7.14072e-06
0.000205325
-7.25561e-06
0.000206122
-7.35015e-06
0.000206927
-7.42667e-06
0.000207736
-7.48758e-06
0.000208548
-7.53543e-06
0.000209361
-7.57271e-06
0.000210176
-7.60184e-06
0.000210989
-7.62505e-06
0.000211802
-7.64428e-06
0.000212613
-7.66114e-06
0.000213422
-7.67687e-06
0.000214229
-7.69231e-06
0.000215034
-7.70789e-06
0.000215836
-7.72371e-06
0.000216636
-7.73954e-06
0.000217433
-7.75484e-06
0.000218227
-7.7689e-06
0.000219018
-7.7808e-06
0.000219806
-7.78952e-06
0.000220589
-7.79397e-06
0.000221369
-7.79302e-06
0.000222143
-7.78554e-06
0.000222912
-7.77041e-06
0.000223674
-7.74655e-06
0.000224429
-7.71293e-06
0.000225176
-7.66855e-06
0.000225913
-7.61249e-06
0.00022664
-7.54384e-06
0.000227355
-7.46176e-06
0.000228058
-7.36542e-06
0.000228748
-7.25405e-06
0.000229422
-7.12685e-06
0.000230081
-6.98306e-06
0.000230723
-6.82191e-06
0.000231347
-6.64264e-06
0.000231953
-6.44445e-06
0.000232539
-6.22654e-06
0.000233105
-5.98809e-06
0.00023365
-5.72824e-06
0.000234175
-5.44614e-06
0.00023468
-5.1409e-06
0.000235164
-4.81165e-06
0.000235629
-4.45749e-06
0.000236076
-4.0776e-06
0.000236508
-3.67117e-06
0.000236926
-3.23752e-06
0.000237334
-2.77609e-06
0.000237737
-2.28652e-06
0.000238139
-1.76872e-06
0.000238548
-1.22294e-06
0.000238971
-6.49786e-07
0.000239417
-5.02312e-08
0.000239894
5.73589e-07
0.000240415
1.21836e-06
0.000240991
1.88047e-06
0.000241633
2.55534e-06
0.000242356
3.23736e-06
0.000243171
3.91991e-06
0.000244087
4.59542e-06
0.000245115
5.2555e-06
0.000246257
5.89125e-06
0.000247516
6.49363e-06
0.000248887
7.05397e-06
0.00025036
7.56472e-06
8.02036e-06
0.00025192
0.000209828
-1.02813e-06
0.000210024
-2.02711e-06
0.000210308
-2.88359e-06
0.000210669
-3.62997e-06
0.000211099
-4.28499e-06
0.00021159
-4.86188e-06
0.000212135
-5.37151e-06
0.000212728
-5.8228e-06
0.000213362
-6.22284e-06
0.000214033
-6.57726e-06
0.000214737
-6.89053e-06
0.000215469
-7.16625e-06
0.000216225
-7.40737e-06
0.000217002
-7.61639e-06
0.000217796
-7.79559e-06
0.000218604
-7.94718e-06
0.000219424
-8.0734e-06
0.000220253
-8.17666e-06
0.000221088
-8.25953e-06
0.000221928
-8.3247e-06
0.00022277
-8.37496e-06
0.000223613
-8.41311e-06
0.000224456
-8.44184e-06
0.000225297
-8.46361e-06
0.000226136
-8.48062e-06
0.000226973
-8.49467e-06
0.000227806
-8.50717e-06
0.000228636
-8.51909e-06
0.000229462
-8.53095e-06
0.000230284
-8.54291e-06
0.000231102
-8.55473e-06
0.000231917
-8.5659e-06
0.000232727
-8.57562e-06
0.000233532
-8.58295e-06
0.000234332
-8.58677e-06
0.000235128
-8.58592e-06
0.000235917
-8.57919e-06
0.0002367
-8.56533e-06
0.000237476
-8.54317e-06
0.000238244
-8.51153e-06
0.000239004
-8.46932e-06
0.000239754
-8.41549e-06
0.000240494
-8.34906e-06
0.000241223
-8.2691e-06
0.000241939
-8.17475e-06
0.000242642
-8.06519e-06
0.000243331
-7.93963e-06
0.000244004
-7.79735e-06
0.000244662
-7.63763e-06
0.000245303
-7.45978e-06
0.000245927
-7.26313e-06
0.000246532
-7.04703e-06
0.00024712
-6.81083e-06
0.000247689
-6.55391e-06
0.000248239
-6.27566e-06
0.000248771
-5.9755e-06
0.000249286
-5.65288e-06
0.000249785
-5.3073e-06
0.000250269
-4.93834e-06
0.000250739
-4.54566e-06
0.0002512
-4.12905e-06
0.000251654
-3.68846e-06
0.000252105
-3.22407e-06
0.000252557
-2.73627e-06
0.000253017
-2.22579e-06
0.00025349
-1.69372e-06
0.000253985
-1.14153e-06
0.000254508
-5.71104e-07
0.000255069
1.54099e-08
0.000255675
6.14498e-07
0.000256337
1.22172e-06
0.000257062
1.83268e-06
0.000257859
2.44228e-06
0.000258737
3.04494e-06
0.0002597
3.63464e-06
0.000260753
4.20512e-06
0.000261896
4.75012e-06
0.000263128
5.26361e-06
0.000264445
5.74021e-06
0.000265836
6.17555e-06
6.56694e-06
0.000267292
0.000224521
-1.12676e-06
0.000224722
-2.2285e-06
0.000225015
-3.17595e-06
0.000225388
-4.00283e-06
0.000225834
-4.72932e-06
0.000226342
-5.36953e-06
0.000226907
-5.93515e-06
0.000227521
-6.43587e-06
0.000228179
-6.87946e-06
0.000228875
-7.27213e-06
0.000229605
-7.61884e-06
0.000230364
-7.92358e-06
0.000231148
-8.18964e-06
0.000231954
-8.41983e-06
0.000232777
-8.61666e-06
0.000233615
-8.7826e-06
0.000234464
-8.92015e-06
0.000235321
-9.03194e-06
0.000236185
-9.1208e-06
0.000237053
-9.1897e-06
0.000237922
-9.24172e-06
0.000238792
-9.27993e-06
0.00023966
-9.30729e-06
0.000240526
-9.32655e-06
0.000241389
-9.34014e-06
0.000242247
-9.35009e-06
0.000243101
-9.35798e-06
0.00024395
-9.36491e-06
0.000244794
-9.37154e-06
0.000245633
-9.37807e-06
0.000246466
-9.3843e-06
0.000247293
-9.3897e-06
0.000248114
-9.39348e-06
0.000248929
-9.39462e-06
0.000249738
-9.39195e-06
0.00025054
-9.38424e-06
0.000251334
-9.37018e-06
0.000252121
-9.34848e-06
0.000252899
-9.31786e-06
0.000253668
-9.2771e-06
0.000254427
-9.22504e-06
0.000255176
-9.1606e-06
0.000255913
-9.08276e-06
0.000256638
-8.99058e-06
0.00025735
-8.88319e-06
0.000258048
-8.75981e-06
0.000258732
-8.6197e-06
0.0002594
-8.46218e-06
0.000260052
-8.28663e-06
0.000260688
-8.09247e-06
0.000261308
-7.87916e-06
0.00026191
-7.64622e-06
0.000262496
-7.3932e-06
0.000263065
-7.11971e-06
0.000263618
-6.82541e-06
0.000264156
-6.51004e-06
0.000264679
-6.17338e-06
0.000265191
-5.81534e-06
0.000265691
-5.43594e-06
0.000266184
-5.03532e-06
0.000266672
-4.61379e-06
0.000267158
-4.17186e-06
0.000267647
-3.71028e-06
0.000268144
-3.23005e-06
0.000268654
-2.73248e-06
0.000269182
-2.21921e-06
0.000269736
-1.69223e-06
0.000270321
-1.15386e-06
0.000270946
-6.06673e-07
0.000271617
-5.32489e-08
0.000272339
5.02053e-07
0.000273119
1.05516e-06
0.000273963
1.6015e-06
0.000274874
2.13664e-06
0.000275855
2.65601e-06
0.000276907
3.1551e-06
0.00027803
3.62959e-06
0.000279221
4.07556e-06
0.000280474
4.4897e-06
0.000281782
4.86956e-06
5.21399e-06
0.000283138
0.000240242
-1.22797e-06
0.000240449
-2.43521e-06
0.00024075
-3.47657e-06
0.000241134
-4.38675e-06
0.000241593
-5.18728e-06
0.000242118
-5.89318e-06
0.0002427
-6.51691e-06
0.000243335
-7.06891e-06
0.000244014
-7.55765e-06
0.000244734
-7.9899e-06
0.000245488
-8.37113e-06
0.000246272
-8.70574e-06
0.000247081
-8.99738e-06
0.000247913
-9.24914e-06
0.000248762
-9.46383e-06
0.000249626
-9.64416e-06
0.000250501
-9.79288e-06
0.000251385
-9.91288e-06
0.000252274
-1.00073e-05
0.000253166
-1.00792e-05
0.00025406
-1.01322e-05
0.000254952
-1.01695e-05
0.000255843
-1.01944e-05
0.000256729
-1.021e-05
0.000257611
-1.02188e-05
0.000258488
-1.02232e-05
0.000259358
-1.02249e-05
0.000260222
-1.02253e-05
0.000261079
-1.0225e-05
0.000261929
-1.02244e-05
0.000262771
-1.02233e-05
0.000263606
-1.02211e-05
0.000264434
-1.02172e-05
0.000265253
-1.02104e-05
0.000266064
-1.01995e-05
0.000266867
-1.01833e-05
0.000267661
-1.01603e-05
0.000268446
-1.01292e-05
0.00026922
-1.00887e-05
0.000269984
-1.00374e-05
0.000270737
-9.97425e-06
0.000271478
-9.89806e-06
0.000272207
-9.80782e-06
0.000272923
-9.7026e-06
0.000273625
-9.58156e-06
0.000274313
-9.44394e-06
0.000274986
-9.28908e-06
0.000275644