/*--------------------------------*- C++ -*----------------------------------*\
| =========                 |                                                 |
| \\      /  F ield         | OpenFOAM: The Open Source CFD Toolbox           |
|  \\    /   O peration     | Version:  2106                                  |
|   \\  /    A nd           | Website:  www.openfoam.com                      |
|    \\/     M anipulation  |                                                 |
\*---------------------------------------------------------------------------*/
FoamFile
{
    version     2.0;
    format      ascii;
    arch        "LSB;label=32;scalar=64";
    class       volScalarField;
    location    "2.6";
    object      T;
}
// * * * * * * * * * * * * * * * * * * * * * * * * * * * * * * * * * * * * * //

dimensions      [0 0 0 1 0 0 0];

internalField   nonuniform List<scalar> 
12013
(
300.002
300.006
300.01
300.014
300.018
300.023
300.028
300.033
300.039
300.044
300.051
300.057
300.064
300.072
300.08
300.088
300.097
300.106
300.116
300.127
300.138
300.149
300.161
300.174
300.188
300.202
300.216
300.232
300.248
300.265
300.282
300.3
300.319
300.339
300.36
300.381
300.403
300.426
300.45
300.474
300.5
300.526
300.553
300.582
300.611
300.641
300.672
300.704
300.737
300.77
300.805
300.841
300.879
300.917
300.956
300.997
301.039
301.082
301.126
301.171
301.218
301.267
301.317
301.368
301.422
301.477
301.534
301.592
301.653
301.717
301.783
301.852
301.923
301.999
302.079
302.163
302.254
302.352
302.46
302.583
302.729
300.002
300.006
300.01
300.014
300.018
300.023
300.028
300.033
300.039
300.044
300.051
300.057
300.064
300.072
300.08
300.088
300.097
300.106
300.116
300.127
300.138
300.149
300.161
300.174
300.188
300.202
300.216
300.232
300.248
300.265
300.282
300.3
300.319
300.339
300.36
300.381
300.403
300.426
300.45
300.474
300.5
300.526
300.553
300.581
300.611
300.641
300.671
300.703
300.736
300.77
300.805
300.841
300.878
300.917
300.956
300.996
301.038
301.081
301.125
301.171
301.218
301.266
301.316
301.368
301.421
301.476
301.533
301.591
301.652
301.715
301.781
301.849
301.921
301.996
302.075
302.159
302.248
302.343
302.447
302.561
302.687
300.002
300.006
300.01
300.014
300.018
300.023
300.028
300.033
300.039
300.044
300.051
300.057
300.064
300.072
300.08
300.088
300.097
300.106
300.116
300.127
300.138
300.149
300.161
300.174
300.188
300.202
300.216
300.232
300.248
300.264
300.282
300.3
300.319
300.339
300.359
300.381
300.403
300.426
300.45
300.474
300.5
300.526
300.553
300.581
300.61
300.64
300.671
300.703
300.736
300.77
300.805
300.841
300.878
300.916
300.955
300.996
301.037
301.08
301.125
301.17
301.217
301.265
301.315
301.366
301.419
301.474
301.53
301.589
301.649
301.712
301.777
301.845
301.916
301.99
302.067
302.149
302.235
302.326
302.423
302.526
302.633
300.002
300.006
300.01
300.014
300.018
300.023
300.028
300.033
300.039
300.044
300.051
300.057
300.064
300.072
300.08
300.088
300.097
300.106
300.116
300.127
300.138
300.149
300.161
300.174
300.187
300.201
300.216
300.232
300.248
300.264
300.282
300.3
300.319
300.339
300.359
300.381
300.403
300.426
300.449
300.474
300.499
300.526
300.553
300.581
300.61
300.64
300.671
300.703
300.735
300.769
300.804
300.84
300.877
300.915
300.954
300.995
301.036
301.079
301.123
301.168
301.215
301.263
301.313
301.364
301.416
301.471
301.527
301.585
301.645
301.707
301.771
301.838
301.907
301.979
302.055
302.133
302.215
302.301
302.391
302.482
302.575
300.002
300.006
300.01
300.014
300.018
300.023
300.028
300.033
300.039
300.044
300.051
300.057
300.064
300.072
300.08
300.088
300.097
300.106
300.116
300.127
300.138
300.149
300.161
300.174
300.187
300.201
300.216
300.231
300.247
300.264
300.282
300.3
300.319
300.339
300.359
300.38
300.402
300.425
300.449
300.473
300.499
300.525
300.552
300.58
300.609
300.639
300.67
300.702
300.735
300.768
300.803
300.839
300.876
300.914
300.953
300.993
301.034
301.077
301.121
301.166
301.212
301.26
301.309
301.36
301.412
301.466
301.521
301.579
301.638
301.699
301.762
301.827
301.895
301.965
302.037
302.112
302.19
302.27
302.352
302.434
302.516
300.002
300.006
300.01
300.014
300.018
300.023
300.028
300.033
300.039
300.044
300.051
300.057
300.064
300.072
300.08
300.088
300.097
300.106
300.116
300.126
300.137
300.149
300.161
300.174
300.187
300.201
300.216
300.231
300.247
300.264
300.281
300.3
300.318
300.338
300.359
300.38
300.402
300.425
300.448
300.473
300.498
300.524
300.552
300.58
300.608
300.638
300.669
300.701
300.733
300.767
300.802
300.837
300.874
300.912
300.951
300.991
301.032
301.074
301.118
301.163
301.209
301.256
301.305
301.355
301.407
301.46
301.514
301.571
301.629
301.688
301.75
301.813
301.879
301.946
302.015
302.087
302.159
302.233
302.308
302.383
302.456
300.002
300.006
300.01
300.014
300.018
300.023
300.028
300.033
300.038
300.044
300.051
300.057
300.064
300.072
300.08
300.088
300.097
300.106
300.116
300.126
300.137
300.149
300.161
300.174
300.187
300.201
300.216
300.231
300.247
300.264
300.281
300.299
300.318
300.338
300.358
300.379
300.401
300.424
300.448
300.472
300.497
300.524
300.551
300.578
300.607
300.637
300.668
300.699
300.732
300.765
300.8
300.835
300.872
300.909
300.948
300.988
301.029
301.071
301.114
301.158
301.204
301.251
301.299
301.348
301.399
301.451
301.505
301.56
301.617
301.675
301.735
301.796
301.859
301.924
301.989
302.056
302.124
302.193
302.261
302.329
302.396
300.002
300.006
300.01
300.014
300.018
300.023
300.028
300.033
300.038
300.044
300.051
300.057
300.064
300.072
300.079
300.088
300.097
300.106
300.116
300.126
300.137
300.149
300.161
300.173
300.187
300.201
300.215
300.231
300.247
300.263
300.281
300.299
300.318
300.337
300.358
300.379
300.401
300.423
300.447
300.471
300.496
300.522
300.549
300.577
300.606
300.635
300.666
300.697
300.73
300.763
300.797
300.833
300.869
300.906
300.945
300.984
301.025
301.066
301.109
301.153
301.198
301.244
301.291
301.34
301.39
301.441
301.494
301.547
301.603
301.659
301.717
301.776
301.836
301.897
301.959
302.022
302.085
302.149
302.212
302.274
302.335
300.002
300.006
300.01
300.014
300.018
300.023
300.028
300.033
300.038
300.044
300.05
300.057
300.064
300.071
300.079
300.088
300.096
300.106
300.116
300.126
300.137
300.148
300.16
300.173
300.186
300.2
300.215
300.23
300.246
300.263
300.28
300.298
300.317
300.336
300.357
300.378
300.4
300.422
300.446
300.47
300.495
300.521
300.548
300.575
300.604
300.633
300.664
300.695
300.727
300.76
300.794
300.829
300.865
300.902
300.94
300.979
301.019
301.06
301.103
301.146
301.19
301.236
301.282
301.33
301.379
301.429
301.48
301.532
301.585
301.64
301.695
301.751
301.809
301.867
301.925
301.984
302.043
302.102
302.16
302.217
302.273
300.002
300.006
300.01
300.014
300.018
300.023
300.028
300.033
300.038
300.044
300.05
300.057
300.064
300.071
300.079
300.088
300.096
300.106
300.115
300.126
300.137
300.148
300.16
300.173
300.186
300.2
300.214
300.23
300.246
300.262
300.279
300.297
300.316
300.336
300.356
300.377
300.398
300.421
300.444
300.468
300.493
300.519
300.546
300.573
300.602
300.631
300.661
300.692
300.724
300.757
300.79
300.825
300.861
300.897
300.935
300.973
301.013
301.053
301.095
301.137
301.181
301.225
301.271
301.317
301.365
301.414
301.463
301.514
301.565
301.617
301.67
301.724
301.778
301.833
301.888
301.943
301.998
302.052
302.106
302.159
302.211
300.002
300.006
300.01
300.014
300.018
300.023
300.028
300.033
300.038
300.044
300.05
300.057
300.064
300.071
300.079
300.087
300.096
300.105
300.115
300.125
300.136
300.148
300.16
300.172
300.186
300.199
300.214
300.229
300.245
300.261
300.278
300.296
300.315
300.334
300.355
300.375
300.397
300.419
300.443
300.467
300.491
300.517
300.543
300.571
300.599
300.628
300.658
300.688
300.72
300.752
300.786
300.82
300.855
300.891
300.928
300.966
301.005
301.045
301.086
301.127
301.17
301.213
301.258
301.303
301.349
301.396
301.444
301.492
301.542
301.591
301.642
301.693
301.744
301.796
301.847
301.899
301.95
302
302.05
302.099
302.147
300.002
300.006
300.01
300.014
300.018
300.023
300.027
300.033
300.038
300.044
300.05
300.057
300.064
300.071
300.079
300.087
300.096
300.105
300.115
300.125
300.136
300.147
300.159
300.172
300.185
300.199
300.213
300.228
300.244
300.26
300.277
300.295
300.314
300.333
300.353
300.374
300.395
300.418
300.441
300.464
300.489
300.514
300.541
300.568
300.596
300.624
300.654
300.684
300.715
300.747
300.78
300.814
300.849
300.884
300.921
300.958
300.996
301.035
301.075
301.115
301.157
301.199
301.242
301.286
301.331
301.376
301.422
301.468
301.515
301.563
301.611
301.659
301.707
301.756
301.804
301.852
301.899
301.947
301.993
302.039
302.083
300.002
300.006
300.009
300.014
300.018
300.023
300.027
300.033
300.038
300.044
300.05
300.056
300.063
300.071
300.079
300.087
300.095
300.105
300.114
300.125
300.135
300.147
300.159
300.171
300.184
300.198
300.212
300.227
300.243
300.259
300.276
300.294
300.312
300.331
300.351
300.372
300.393
300.415
300.438
300.462
300.486
300.511
300.537
300.564
300.591
300.62
300.649
300.679
300.71
300.741
300.774
300.807
300.841
300.876
300.911
300.948
300.985
301.023
301.062
301.101
301.142
301.183
301.224
301.267
301.309
301.353
301.397
301.441
301.486
301.531
301.576
301.622
301.667
301.713
301.758
301.803
301.847
301.891
301.934
301.977
302.018
300.002
300.006
300.009
300.014
300.018
300.022
300.027
300.032
300.038
300.044
300.05
300.056
300.063
300.07
300.078
300.086
300.095
300.104
300.114
300.124
300.135
300.146
300.158
300.17
300.183
300.197
300.211
300.226
300.242
300.258
300.275
300.292
300.31
300.329
300.349
300.37
300.391
300.413
300.435
300.458
300.483
300.507
300.533
300.559
300.587
300.615
300.643
300.673
300.703
300.734
300.766
300.798
300.832
300.866
300.901
300.936
300.972
301.009
301.047
301.085
301.124
301.164
301.204
301.245
301.286
301.327
301.369
301.411
301.454
301.497
301.539
301.582
301.625
301.667
301.709
301.751
301.793
301.834
301.874
301.913
301.952
300.002
300.006
300.009
300.013
300.018
300.022
300.027
300.032
300.038
300.043
300.05
300.056
300.063
300.07
300.078
300.086
300.095
300.104
300.113
300.123
300.134
300.145
300.157
300.169
300.182
300.196
300.21
300.225
300.24
300.256
300.273
300.29
300.308
300.327
300.347
300.367
300.388
300.409
300.432
300.455
300.478
300.503
300.528
300.554
300.581
300.608
300.637
300.666
300.695
300.726
300.757
300.789
300.821
300.854
300.888
300.923
300.958
300.994
301.03
301.067
301.105
301.143
301.181
301.22
301.259
301.299
301.339
301.379
301.419
301.459
301.499
301.54
301.58
301.619
301.659
301.698
301.737
301.775
301.812
301.849
301.885
300.002
300.005
300.009
300.013
300.018
300.022
300.027
300.032
300.037
300.043
300.049
300.056
300.063
300.07
300.077
300.085
300.094
300.103
300.113
300.123
300.133
300.144
300.156
300.168
300.181
300.194
300.208
300.223
300.238
300.254
300.271
300.288
300.306
300.324
300.344
300.364
300.384
300.406
300.428
300.45
300.474
300.498
300.523
300.548
300.574
300.601
300.629
300.657
300.686
300.716
300.746
300.777
300.809
300.841
300.874
300.908
300.942
300.976
301.011
301.047
301.083
301.119
301.156
301.193
301.23
301.268
301.306
301.344
301.381
301.419
301.457
301.495
301.532
301.569
301.606
301.643
301.679
301.714
301.749
301.783
301.817
300.002
300.005
300.009
300.013
300.018
300.022
300.027
300.032
300.037
300.043
300.049
300.055
300.062
300.069
300.077
300.085
300.093
300.102
300.112
300.122
300.132
300.143
300.155
300.167
300.179
300.193
300.207
300.221
300.236
300.252
300.268
300.285
300.303
300.321
300.34
300.36
300.38
300.401
300.423
300.445
300.468
300.492
300.516
300.541
300.567
300.593
300.62
300.648
300.676
300.705
300.734
300.764
300.795
300.826
300.858
300.89
300.923
300.956
300.99
301.024
301.058
301.093
301.128
301.163
301.199
301.234
301.27
301.306
301.341
301.377
301.412
301.448
301.483
301.517
301.552
301.586
301.619
301.652
301.685
301.717
301.748
300.002
300.005
300.009
300.013
300.017
300.022
300.027
300.032
300.037
300.043
300.049
300.055
300.062
300.069
300.076
300.084
300.093
300.101
300.111
300.121
300.131
300.142
300.153
300.165
300.178
300.191
300.205
300.219
300.234
300.249
300.265
300.282
300.299
300.317
300.336
300.355
300.375
300.396
300.417
300.439
300.462
300.485
300.509
300.533
300.558
300.584
300.61
300.637
300.664
300.692
300.721
300.75
300.78
300.81
300.84
300.871
300.903
300.934
300.967
300.999
301.032
301.065
301.098
301.131
301.165
301.198
301.232
301.265
301.299
301.332
301.365
301.398
301.431
301.463
301.495
301.527
301.558
301.589
301.619
301.649
301.678
300.002
300.005
300.009
300.013
300.017
300.022
300.026
300.031
300.037
300.042
300.048
300.054
300.061
300.068
300.075
300.083
300.092
300.1
300.11
300.119
300.13
300.14
300.152
300.163
300.176
300.189
300.202
300.216
300.231
300.246
300.262
300.278
300.296
300.313
300.331
300.35
300.37
300.39
300.411
300.432
300.454
300.477
300.5
300.524
300.548
300.573
300.598
300.624
300.651
300.678
300.706
300.734
300.762
300.791
300.82
300.85
300.88
300.91
300.941
300.972
301.003
301.034
301.065
301.097
301.128
301.16
301.191
301.223
301.254
301.285
301.316
301.347
301.377
301.407
301.437
301.467
301.496
301.524
301.553
301.58
301.608
300.002
300.005
300.009
300.013
300.017
300.022
300.026
300.031
300.036
300.042
300.048
300.054
300.06
300.067
300.075
300.082
300.091
300.099
300.108
300.118
300.128
300.139
300.15
300.161
300.173
300.186
300.199
300.213
300.228
300.243
300.258
300.274
300.291
300.308
300.326
300.345
300.364
300.383
300.404
300.424
300.446
300.468
300.49
300.513
300.537
300.561
300.585
300.611
300.636
300.662
300.689
300.715
300.743
300.77
300.798
300.827
300.855
300.884
300.913
300.942
300.971
301.001
301.03
301.06
301.09
301.119
301.149
301.178
301.207
301.236
301.265
301.294
301.322
301.35
301.378
301.405
301.432
301.459
301.485
301.511
301.536
300.002
300.005
300.009
300.013
300.017
300.021
300.026
300.031
300.036
300.041
300.047
300.053
300.06
300.066
300.074
300.081
300.089
300.098
300.107
300.116
300.126
300.137
300.147
300.159
300.171
300.183
300.196
300.21
300.224
300.239
300.254
300.269
300.286
300.303
300.32
300.338
300.357
300.376
300.395
300.416
300.436
300.457
300.479
300.501
300.524
300.547
300.571
300.595
300.62
300.645
300.67
300.695
300.721
300.748
300.774
300.801
300.828
300.855
300.883
300.91
300.938
300.966
300.993
301.021
301.049
301.076
301.104
301.131
301.158
301.185
301.212
301.239
301.265
301.291
301.317
301.342
301.367
301.392
301.416
301.44
301.464
300.002
300.005
300.009
300.013
300.017
300.021
300.025
300.03
300.035
300.041
300.046
300.052
300.059
300.065
300.073
300.08
300.088
300.096
300.105
300.114
300.124
300.134
300.145
300.156
300.168
300.18
300.193
300.206
300.22
300.234
300.249
300.264
300.28
300.296
300.313
300.331
300.349
300.367
300.386
300.406
300.426
300.446
300.467
300.488
300.51
300.532
300.555
300.578
300.601
300.625
300.649
300.674
300.698
300.723
300.748
300.774
300.799
300.825
300.85
300.876
300.902
300.928
300.954
300.98
301.006
301.031
301.057
301.083
301.108
301.133
301.158
301.182
301.207
301.231
301.255
301.278
301.302
301.324
301.347
301.369
301.391
300.002
300.005
300.009
300.012
300.016
300.021
300.025
300.03
300.035
300.04
300.046
300.051
300.058
300.064
300.071
300.079
300.086
300.095
300.103
300.112
300.122
300.132
300.142
300.153
300.164
300.176
300.189
300.201
300.215
300.229
300.243
300.258
300.273
300.289
300.305
300.322
300.34
300.357
300.376
300.394
300.414
300.433
300.453
300.474
300.495
300.516
300.537
300.559
300.582
300.604
300.627
300.65
300.673
300.697
300.72
300.744
300.768
300.792
300.816
300.84
300.865
300.889
300.913
300.937
300.961
300.985
301.009
301.032
301.056
301.079
301.102
301.125
301.147
301.17
301.192
301.213
301.235
301.256
301.277
301.297
301.317
300.002
300.005
300.009
300.012
300.016
300.02
300.025
300.029
300.034
300.039
300.045
300.05
300.056
300.063
300.07
300.077
300.085
300.093
300.101
300.11
300.119
300.129
300.139
300.149
300.16
300.172
300.184
300.196
300.209
300.223
300.237
300.251
300.266
300.281
300.297
300.313
300.33
300.347
300.364
300.382
300.4
300.419
300.438
300.458
300.478
300.498
300.518
300.539
300.56
300.581
300.603
300.624
300.646
300.668
300.691
300.713
300.735
300.758
300.78
300.803
300.825
300.848
300.87
300.892
300.915
300.937
300.959
300.981
301.002
301.024
301.045
301.066
301.087
301.107
301.128
301.148
301.167
301.187
301.206
301.225
301.244
300.002
300.005
300.008
300.012
300.016
300.02
300.024
300.029
300.033
300.038
300.044
300.049
300.055
300.061
300.068
300.075
300.082
300.09
300.098
300.107
300.116
300.125
300.135
300.145
300.156
300.167
300.179
300.191
300.203
300.216
300.229
300.243
300.257
300.272
300.287
300.303
300.319
300.335
300.352
300.369
300.386
300.404
300.422
300.44
300.459
300.478
300.497
300.517
300.537
300.557
300.577
300.597
300.618
300.638
300.659
300.68
300.701
300.721
300.742
300.763
300.784
300.805
300.826
300.846
300.867
300.887
300.907
300.928
300.947
300.967
300.987
301.006
301.025
301.044
301.063
301.081
301.099
301.117
301.135
301.152
301.169
300.002
300.005
300.008
300.012
300.015
300.019
300.023
300.028
300.032
300.037
300.042
300.048
300.054
300.06
300.066
300.073
300.08
300.088
300.096
300.104
300.112
300.122
300.131
300.141
300.151
300.162
300.173
300.185
300.196
300.209
300.222
300.235
300.248
300.262
300.277
300.291
300.307
300.322
300.338
300.354
300.371
300.387
300.404
300.422
300.439
300.457
300.475
300.494
300.512
300.531
300.55
300.568
300.588
300.607
300.626
300.645
300.664
300.684
300.703
300.722
300.741
300.761
300.78
300.799
300.818
300.836
300.855
300.873
300.892
300.91
300.928
300.946
300.963
300.98
300.998
301.014
301.031
301.048
301.064
301.08
301.095
300.002
300.005
300.008
300.011
300.015
300.019
300.023
300.027
300.031
300.036
300.041
300.046
300.052
300.058
300.064
300.071
300.078
300.085
300.092
300.1
300.109
300.117
300.126
300.136
300.146
300.156
300.167
300.178
300.189
300.201
300.213
300.226
300.238
300.252
300.265
300.279
300.294
300.308
300.323
300.338
300.354
300.369
300.385
300.402
300.418
300.435
300.452
300.469
300.486
300.503
300.521
300.538
300.556
300.574
300.591
300.609
300.627
300.645
300.662
300.68
300.698
300.715
300.733
300.75
300.768
300.785
300.802
300.819
300.835
300.852
300.868
300.885
300.901
300.916
300.932
300.947
300.963
300.978
300.992
301.007
301.021
300.001
300.004
300.008
300.011
300.014
300.018
300.022
300.026
300.03
300.035
300.04
300.045
300.05
300.056
300.062
300.068
300.075
300.082
300.089
300.097
300.105
300.113
300.122
300.131
300.14
300.15
300.16
300.17
300.181
300.192
300.204
300.215
300.228
300.24
300.253
300.266
300.279
300.293
300.307
300.321
300.336
300.35
300.365
300.381
300.396
300.411
300.427
300.443
300.459
300.475
300.491
300.507
300.523
300.539
300.556
300.572
300.588
300.605
300.621
300.637
300.653
300.669
300.685
300.701
300.717
300.732
300.748
300.763
300.779
300.794
300.809
300.823
300.838
300.852
300.866
300.881
300.894
300.908
300.921
300.935
300.948
300.001
300.004
300.007
300.011
300.014
300.017
300.021
300.025
300.029
300.034
300.038
300.043
300.048
300.054
300.059
300.065
300.072
300.078
300.085
300.092
300.1
300.108
300.116
300.125
300.134
300.143
300.152
300.162
300.172
300.183
300.194
300.205
300.216
300.228
300.24
300.252
300.264
300.277
300.29
300.303
300.317
300.33
300.344
300.358
300.372
300.387
300.401
300.416
300.43
300.445
300.46
300.474
300.489
300.504
300.519
300.534
300.549
300.564
300.578
300.593
300.608
300.622
300.637
300.651
300.666
300.68
300.694
300.708
300.722
300.735
300.749
300.762
300.775
300.788
300.801
300.814
300.826
300.839
300.851
300.863
300.875
300.001
300.004
300.007
300.01
300.013
300.017
300.02
300.024
300.028
300.032
300.037
300.041
300.046
300.051
300.057
300.062
300.068
300.075
300.081
300.088
300.095
300.103
300.11
300.118
300.127
300.135
300.144
300.153
300.163
300.173
300.183
300.193
300.204
300.215
300.226
300.237
300.249
300.261
300.273
300.285
300.297
300.31
300.322
300.335
300.348
300.361
300.374
300.388
300.401
300.414
300.428
300.441
300.455
300.468
300.482
300.495
300.509
300.522
300.536
300.549
300.562
300.575
300.588
300.601
300.614
300.627
300.64
300.652
300.665
300.677
300.689
300.701
300.713
300.725
300.737
300.748
300.759
300.77
300.781
300.792
300.803
300.001
300.004
300.007
300.01
300.013
300.016
300.019
300.023
300.027
300.031
300.035
300.039
300.044
300.049
300.054
300.059
300.065
300.071
300.077
300.083
300.09
300.097
300.104
300.112
300.119
300.127
300.136
300.144
300.153
300.162
300.172
300.181
300.191
300.201
300.211
300.222
300.232
300.243
300.254
300.265
300.277
300.288
300.3
300.311
300.323
300.335
300.347
300.359
300.371
300.383
300.395
300.408
300.42
300.432
300.444
300.456
300.469
300.481
300.493
300.505
300.517
300.528
300.54
300.552
300.563
300.575
300.586
300.598
300.609
300.62
300.631
300.642
300.652
300.663
300.673
300.683
300.693
300.703
300.713
300.723
300.732
300.001
300.004
300.006
300.009
300.012
300.015
300.018
300.022
300.025
300.029
300.033
300.037
300.041
300.046
300.051
300.056
300.061
300.066
300.072
300.078
300.084
300.091
300.098
300.104
300.112
300.119
300.127
300.135
300.143
300.151
300.16
300.169
300.178
300.187
300.196
300.206
300.215
300.225
300.235
300.245
300.256
300.266
300.277
300.287
300.298
300.309
300.319
300.33
300.341
300.352
300.363
300.374
300.385
300.396
300.407
300.418
300.429
300.439
300.45
300.461
300.472
300.482
300.493
300.503
300.513
300.524
300.534
300.544
300.554
300.564
300.573
300.583
300.592
300.602
300.611
300.62
300.629
300.638
300.647
300.655
300.664
300.001
300.003
300.006
300.009
300.011
300.014
300.017
300.02
300.024
300.027
300.031
300.035
300.039
300.043
300.047
300.052
300.057
300.062
300.067
300.073
300.079
300.085
300.091
300.097
300.104
300.111
300.118
300.125
300.132
300.14
300.148
300.156
300.164
300.172
300.181
300.19
300.198
300.207
300.216
300.225
300.235
300.244
300.253
300.263
300.273
300.282
300.292
300.302
300.311
300.321
300.331
300.341
300.35
300.36
300.37
300.38
300.389
300.399
300.408
300.418
300.427
300.437
300.446
300.455
300.464
300.474
300.483
300.491
300.5
300.509
300.518
300.526
300.534
300.543
300.551
300.559
300.567
300.575
300.583
300.59
300.598
300.001
300.003
300.006
300.008
300.01
300.013
300.016
300.019
300.022
300.025
300.029
300.032
300.036
300.04
300.044
300.048
300.053
300.057
300.062
300.067
300.073
300.078
300.084
300.09
300.096
300.102
300.108
300.115
300.122
300.129
300.136
300.143
300.15
300.158
300.166
300.173
300.181
300.189
300.197
300.206
300.214
300.222
300.231
300.239
300.248
300.256
300.265
300.273
300.282
300.291
300.299
300.308
300.317
300.325
300.334
300.342
300.351
300.359
300.368
300.376
300.385
300.393
300.401
300.409
300.417
300.425
300.433
300.441
300.449
300.457
300.464
300.472
300.479
300.486
300.493
300.501
300.508
300.515
300.521
300.528
300.535
300.001
300.003
300.005
300.007
300.01
300.012
300.015
300.017
300.02
300.023
300.026
300.03
300.033
300.037
300.041
300.045
300.049
300.053
300.057
300.062
300.067
300.072
300.077
300.082
300.088
300.093
300.099
300.105
300.111
300.117
300.124
300.13
300.137
300.144
300.15
300.157
300.164
300.172
300.179
300.186
300.193
300.201
300.208
300.216
300.223
300.231
300.239
300.246
300.254
300.261
300.269
300.277
300.284
300.292
300.3
300.307
300.315
300.322
300.329
300.337
300.344
300.351
300.359
300.366
300.373
300.38
300.387
300.394
300.4
300.407
300.414
300.42
300.427
300.433
300.439
300.446
300.452
300.458
300.464
300.47
300.475
300.001
300.003
300.005
300.007
300.009
300.011
300.014
300.016
300.019
300.021
300.024
300.027
300.031
300.034
300.037
300.041
300.045
300.049
300.053
300.057
300.061
300.066
300.07
300.075
300.08
300.085
300.09
300.096
300.101
300.107
300.112
300.118
300.124
300.13
300.136
300.142
300.148
300.155
300.161
300.168
300.174
300.181
300.187
300.194
300.201
300.207
300.214
300.221
300.227
300.234
300.241
300.247
300.254
300.261
300.267
300.274
300.28
300.287
300.293
300.3
300.306
300.313
300.319
300.325
300.331
300.337
300.343
300.349
300.355
300.361
300.367
300.373
300.378
300.384
300.389
300.395
300.4
300.405
300.411
300.416
300.421
300.001
300.003
300.004
300.006
300.008
300.01
300.013
300.015
300.017
300.02
300.022
300.025
300.028
300.031
300.034
300.037
300.041
300.044
300.048
300.052
300.056
300.06
300.064
300.068
300.073
300.077
300.082
300.087
300.092
300.096
300.102
300.107
300.112
300.117
300.123
300.128
300.134
300.139
300.145
300.151
300.156
300.162
300.168
300.174
300.18
300.185
300.191
300.197
300.203
300.209
300.215
300.221
300.226
300.232
300.238
300.244
300.249
300.255
300.261
300.266
300.272
300.278
300.283
300.288
300.294
300.299
300.304
300.31
300.315
300.32
300.325
300.33
300.335
300.34
300.344
300.349
300.354
300.358
300.363
300.367
300.372
300.001
300.002
300.004
300.006
300.008
300.01
300.012
300.014
300.016
300.018
300.021
300.023
300.026
300.028
300.031
300.034
300.037
300.041
300.044
300.047
300.051
300.055
300.058
300.062
300.066
300.07
300.074
300.079
300.083
300.087
300.092
300.097
300.101
300.106
300.111
300.116
300.121
300.125
300.13
300.135
300.141
300.146
300.151
300.156
300.161
300.166
300.171
300.177
300.182
300.187
300.192
300.197
300.202
300.207
300.212
300.217
300.222
300.227
300.232
300.237
300.242
300.247
300.252
300.256
300.261
300.266
300.27
300.275
300.279
300.284
300.288
300.293
300.297
300.301
300.305
300.309
300.313
300.317
300.321
300.325
300.329
300.001
300.002
300.004
300.005
300.007
300.009
300.011
300.013
300.015
300.017
300.019
300.021
300.024
300.026
300.029
300.032
300.034
300.037
300.04
300.044
300.047
300.05
300.054
300.057
300.061
300.064
300.068
300.072
300.076
300.08
300.084
300.088
300.092
300.097
300.101
300.105
300.11
300.114
300.118
300.123
300.127
300.132
300.137
300.141
300.146
300.15
300.155
300.16
300.164
300.169
300.173
300.178
300.182
300.187
300.191
300.196
300.2
300.205
300.209
300.213
300.218
300.222
300.226
300.23
300.235
300.239
300.243
300.247
300.251
300.255
300.258
300.262
300.266
300.27
300.274
300.277
300.281
300.284
300.288
300.291
300.295
300.001
300.002
300.004
300.005
300.007
300.008
300.01
300.012
300.014
300.016
300.018
300.02
300.022
300.025
300.027
300.03
300.032
300.035
300.038
300.041
300.044
300.047
300.05
300.053
300.057
300.06
300.063
300.067
300.071
300.074
300.078
300.082
300.086
300.09
300.093
300.097
300.101
300.106
300.11
300.114
300.118
300.122
300.126
300.13
300.135
300.139
300.143
300.147
300.151
300.155
300.16
300.164
300.168
300.172
300.176
300.18
300.184
300.188
300.192
300.196
300.2
300.204
300.208
300.211
300.215
300.219
300.223
300.226
300.23
300.233
300.237
300.24
300.244
300.247
300.25
300.254
300.257
300.26
300.263
300.266
300.269
300.001
300.002
300.003
300.005
300.006
300.008
300.01
300.011
300.013
300.015
300.017
300.019
300.021
300.024
300.026
300.029
300.031
300.034
300.036
300.039
300.042
300.045
300.048
300.051
300.054
300.058
300.061
300.064
300.068
300.071
300.075
300.078
300.082
300.086
300.089
300.093
300.097
300.101
300.105
300.109
300.113
300.116
300.12
300.124
300.128
300.132
300.136
300.14
300.144
300.148
300.152
300.156
300.16
300.164
300.168
300.171
300.175
300.179
300.183
300.186
300.19
300.194
300.197
300.201
300.204
300.208
300.211
300.215
300.218
300.222
300.225
300.228
300.231
300.235
300.238
300.241
300.244
300.247
300.25
300.253
300.256
302.922
303.049
303.126
303.197
303.259
303.31
303.344
303.382
303.421
303.457
303.488
303.521
303.554
303.587
303.62
303.651
303.681
303.707
303.735
303.763
303.791
303.819
303.846
303.873
303.901
303.927
303.953
303.979
304.004
304.029
304.054
304.078
304.102
304.125
304.149
304.171
304.194
304.217
304.238
304.26
304.282
304.302
304.324
304.348
304.37
304.391
304.411
304.431
304.453
304.474
304.494
304.512
304.531
304.551
304.571
304.591
304.611
304.631
304.65
304.668
304.684
304.701
304.718
304.735
304.753
304.77
304.788
304.804
304.821
304.837
304.853
304.869
304.884
304.899
304.914
304.928
304.943
304.957
304.97
304.985
305.001
305.015
305.028
305.04
305.052
305.063
305.075
305.089
305.101
305.112
305.121
305.132
305.144
305.154
305.165
305.176
305.186
305.195
305.205
305.214
305.221
305.23
305.237
305.245
305.253
305.261
305.268
305.274
305.28
305.285
305.291
305.297
305.303
305.308
305.313
305.316
305.32
305.324
305.328
305.331
305.333
305.335
305.337
305.339
305.34
305.34
305.34
305.339
305.338
305.336
305.334
305.33
305.326
305.321
305.315
305.308
305.3
305.29
305.28
305.268
305.255
305.241
305.225
305.207
305.188
305.166
305.143
305.117
305.088
305.054
305.013
304.971
304.93
304.883
304.83
304.769
304.703
304.59
304.486
304.353
304.177
302.822
302.934
303.021
303.095
303.159
303.213
303.258
303.301
303.342
303.38
303.415
303.45
303.485
303.519
303.552
303.584
303.615
303.644
303.673
303.701
303.73
303.758
303.786
303.814
303.842
303.869
303.895
303.921
303.947
303.972
303.997
304.022
304.046
304.07
304.094
304.117
304.14
304.163
304.185
304.207
304.229
304.251
304.273
304.296
304.318
304.339
304.36
304.381
304.402
304.423
304.443
304.462
304.482
304.502
304.522
304.542
304.562
304.581
304.601
304.619
304.635
304.653
304.67
304.688
304.705
304.723
304.74
304.757
304.774
304.79
304.806
304.822
304.837
304.852
304.867
304.882
304.896
304.911
304.924
304.939
304.954
304.969
304.982
304.994
305.006
305.018
305.03
305.043
305.056
305.067
305.077
305.088
305.099
305.11
305.121
305.132
305.142
305.151
305.16
305.169
305.177
305.186
305.193
305.201
305.209
305.217
305.224
305.23
305.236
305.242
305.248
305.254
305.259
305.265
305.27
305.273
305.277
305.281
305.285
305.288
305.29
305.292
305.294
305.296
305.297
305.297
305.297
305.297
305.295
305.293
305.291
305.287
305.283
305.278
305.272
305.265
305.257
305.248
305.237
305.226
305.213
305.198
305.182
305.165
305.145
305.124
305.1
305.073
305.044
305.01
304.97
304.928
304.885
304.837
304.783
304.721
304.65
304.541
304.431
304.292
304.099
302.74
302.838
302.923
302.997
303.062
303.119
303.17
303.216
303.259
303.3
303.338
303.375
303.411
303.446
303.48
303.513
303.545
303.576
303.606
303.636
303.665
303.694
303.723
303.751
303.779
303.806
303.833
303.86
303.886
303.912
303.938
303.963
303.987
304.012
304.036
304.059
304.083
304.106
304.129
304.151
304.174