/*--------------------------------*- C++ -*----------------------------------*\
| =========                 |                                                 |
| \\      /  F ield         | OpenFOAM: The Open Source CFD Toolbox           |
|  \\    /   O peration     | Version:  2106                                  |
|   \\  /    A nd           | Website:  www.openfoam.com                      |
|    \\/     M anipulation  |                                                 |
\*---------------------------------------------------------------------------*/
FoamFile
{
    version     2.0;
    format      ascii;
    arch        "LSB;label=32;scalar=64";
    class       volVectorField;
    location    "2.6";
    object      U;
}
// * * * * * * * * * * * * * * * * * * * * * * * * * * * * * * * * * * * * * //

dimensions      [0 1 -1 0 0 0 0];

internalField   nonuniform List<vector> 
12013
(
(0.100023 -6.35915e-06 0)
(0.100116 -1.17518e-05 0)
(0.100267 -1.66711e-05 0)
(0.100461 -2.11129e-05 0)
(0.100693 -2.51995e-05 0)
(0.100959 -2.9002e-05 0)
(0.101255 -3.25664e-05 0)
(0.101577 -3.59292e-05 0)
(0.101924 -3.91177e-05 0)
(0.102291 -4.21516e-05 0)
(0.102677 -4.50447e-05 0)
(0.103081 -4.78073e-05 0)
(0.103499 -5.04464e-05 0)
(0.103931 -5.2967e-05 0)
(0.104374 -5.5374e-05 0)
(0.104827 -5.76735e-05 0)
(0.105289 -5.98723e-05 0)
(0.105759 -6.19798e-05 0)
(0.106235 -6.40086e-05 0)
(0.106717 -6.59729e-05 0)
(0.107203 -6.78894e-05 0)
(0.107693 -6.97766e-05 0)
(0.108187 -7.16527e-05 0)
(0.108684 -7.3536e-05 0)
(0.109184 -7.54434e-05 0)
(0.109687 -7.73891e-05 0)
(0.110193 -7.93852e-05 0)
(0.110702 -8.14398e-05 0)
(0.111214 -8.35577e-05 0)
(0.111729 -8.57401e-05 0)
(0.112248 -8.79843e-05 0)
(0.112769 -9.02849e-05 0)
(0.113294 -9.26329e-05 0)
(0.113822 -9.50169e-05 0)
(0.114353 -9.74235e-05 0)
(0.114886 -9.98366e-05 0)
(0.115423 -0.000102239 0)
(0.115961 -0.000104612 0)
(0.116501 -0.000106936 0)
(0.117041 -0.000109189 0)
(0.117583 -0.000111349 0)
(0.118124 -0.000113392 0)
(0.118664 -0.000115293 0)
(0.119202 -0.000117024 0)
(0.119737 -0.000118556 0)
(0.120269 -0.00011986 0)
(0.120795 -0.000120899 0)
(0.121316 -0.000121637 0)
(0.121829 -0.000122031 0)
(0.122334 -0.000122035 0)
(0.122828 -0.000121596 0)
(0.123311 -0.000120654 0)
(0.12378 -0.00011914 0)
(0.124235 -0.000116974 0)
(0.124671 -0.000114065 0)
(0.125089 -0.000110304 0)
(0.125484 -0.000105565 0)
(0.125854 -9.96965e-05 0)
(0.126196 -9.25174e-05 0)
(0.126507 -8.38094e-05 0)
(0.126782 -7.33071e-05 0)
(0.127016 -6.06842e-05 0)
(0.127205 -4.5535e-05 0)
(0.12734 -2.73516e-05 0)
(0.127416 -5.48889e-06 0)
(0.127422 2.0894e-05 0)
(0.127348 5.29198e-05 0)
(0.127178 9.20837e-05 0)
(0.126896 0.00014042 0)
(0.126479 0.000200763 0)
(0.125897 0.000277154 0)
(0.125111 0.000375509 0)
(0.124066 0.000504728 0)
(0.122687 0.0006786 0)
(0.120865 0.000919152 0)
(0.118439 0.00126265 0)
(0.115163 0.00177073 0)
(0.110636 0.00255403 0)
(0.104205 0.00384459 0)
(0.0950228 0.00630643 0)
(0.0845453 0.0129807 0)
(0.100021 -1.94278e-05 0)
(0.100114 -3.60399e-05 0)
(0.100264 -5.115e-05 0)
(0.100458 -6.47828e-05 0)
(0.10069 -7.73252e-05 0)
(0.100955 -8.89946e-05 0)
(0.10125 -9.99323e-05 0)
(0.101572 -0.000110251 0)
(0.101918 -0.000120034 0)
(0.102285 -0.000129342 0)
(0.102671 -0.000138217 0)
(0.103073 -0.000146691 0)
(0.103491 -0.000154786 0)
(0.103922 -0.000162517 0)
(0.104364 -0.000169898 0)
(0.104817 -0.000176949 0)
(0.105278 -0.00018369 0)
(0.105747 -0.000190152 0)
(0.106222 -0.00019637 0)
(0.106703 -0.00020239 0)
(0.107188 -0.000208262 0)
(0.107677 -0.000214044 0)
(0.10817 -0.000219791 0)
(0.108666 -0.00022556 0)
(0.109165 -0.000231401 0)
(0.109666 -0.000237359 0)
(0.110171 -0.000243471 0)
(0.110678 -0.000249763 0)
(0.111189 -0.000256247 0)
(0.111702 -0.000262928 0)
(0.112219 -0.000269798 0)
(0.112739 -0.00027684 0)
(0.113262 -0.000284027 0)
(0.113788 -0.000291324 0)
(0.114317 -0.000298689 0)
(0.114848 -0.000306074 0)
(0.115382 -0.000313425 0)
(0.115918 -0.000320686 0)
(0.116456 -0.000327794 0)
(0.116994 -0.000334685 0)
(0.117533 -0.000341289 0)
(0.118072 -0.000347533 0)
(0.118609 -0.000353341 0)
(0.119145 -0.000358628 0)
(0.119677 -0.000363308 0)
(0.120206 -0.000367283 0)
(0.12073 -0.000370448 0)
(0.121248 -0.000372689 0)
(0.121758 -0.000373878 0)
(0.12226 -0.00037387 0)
(0.122751 -0.000372506 0)
(0.123231 -0.000369601 0)
(0.123698 -0.000364945 0)
(0.124149 -0.000358297 0)
(0.124583 -0.000349375 0)
(0.124998 -0.000337851 0)
(0.12539 -0.000323337 0)
(0.125758 -0.000305375 0)
(0.126098 -0.000283416 0)
(0.126407 -0.000256796 0)
(0.126681 -0.000224711 0)
(0.126914 -0.000186173 0)
(0.127103 -0.000139957 0)
(0.12724 -8.45315e-05 0)
(0.127318 -1.79561e-05 0)
(0.127329 6.2281e-05 0)
(0.127261 0.0001595 0)
(0.127103 0.000278112 0)
(0.126837 0.000424081 0)
(0.126444 0.000605636 0)
(0.125897 0.000834383 0)
(0.125164 0.00112707 0)
(0.124199 0.00150841 0)
(0.122944 0.00201582 0)
(0.12132 0.00270717 0)
(0.11922 0.0036737 0)
(0.116502 0.00506046 0)
(0.112974 0.00709807 0)
(0.108408 0.0101516 0)
(0.102835 0.0147135 0)
(0.0980932 0.0208652 0)
(0.10002 -3.30628e-05 0)
(0.100112 -6.18523e-05 0)
(0.100261 -8.78769e-05 0)
(0.100453 -0.000111349 0)
(0.100684 -0.000132937 0)
(0.100948 -0.000153018 0)
(0.101242 -0.000171836 0)
(0.101563 -0.000189588 0)
(0.101908 -0.000206413 0)
(0.102273 -0.000222419 0)
(0.102658 -0.00023768 0)
(0.103059 -0.000252249 0)
(0.103475 -0.000266162 0)
(0.103905 -0.000279447 0)
(0.104346 -0.000292132 0)
(0.104797 -0.000304243 0)
(0.105256 -0.000315821 0)
(0.105723 -0.000326914 0)
(0.106197 -0.000337587 0)
(0.106675 -0.000347915 0)
(0.107159 -0.000357989 0)
(0.107646 -0.000367902 0)
(0.108136 -0.000377754 0)
(0.108629 -0.000387639 0)
(0.109126 -0.000397646 0)
(0.109625 -0.000407853 0)
(0.110127 -0.00041832 0)
(0.110631 -0.000429092 0)
(0.111139 -0.000440194 0)
(0.111649 -0.000451631 0)
(0.112162 -0.000463392 0)
(0.112679 -0.000475445 0)
(0.113198 -0.000487745 0)
(0.11372 -0.000500231 0)
(0.114245 -0.000512831 0)
(0.114773 -0.000525463 0)
(0.115303 -0.000538034 0)
(0.115834 -0.000550447 0)
(0.116367 -0.000562596 0)
(0.116901 -0.000574367 0)
(0.117435 -0.000585643 0)
(0.117969 -0.000596298 0)
(0.118501 -0.0006062 0)
(0.119031 -0.000615206 0)
(0.119558 -0.000623164 0)
(0.120082 -0.00062991 0)
(0.1206 -0.000635265 0)
(0.121112 -0.000639031 0)
(0.121616 -0.000640989 0)
(0.122112 -0.000640896 0)
(0.122598 -0.000638475 0)
(0.123072 -0.000633414 0)
(0.123532 -0.000625357 0)
(0.123978 -0.000613893 0)
(0.124406 -0.000598544 0)
(0.124815 -0.000578755 0)
(0.125202 -0.000553872 0)
(0.125565 -0.000523121 0)
(0.1259 -0.000485579 0)
(0.126205 -0.000440137 0)
(0.126475 -0.000385448 0)
(0.126707 -0.000319868 0)
(0.126894 -0.000241368 0)
(0.127033 -0.000147421 0)
(0.127115 -3.48423e-05 0)
(0.127133 0.000100441 0)
(0.127077 0.000263749 0)
(0.126937 0.000462083 0)
(0.126699 0.000704775 0)
(0.126346 0.00100447 0)
(0.125859 0.00137861 0)
(0.125213 0.00185164 0)
(0.124378 0.00245839 0)
(0.12332 0.0032492 0)
(0.121998 0.00429746 0)
(0.120372 0.00571013 0)
(0.118409 0.00763998 0)
(0.11611 0.0102937 0)
(0.113564 0.0139188 0)
(0.111123 0.018667 0)
(0.109795 0.0239248 0)
(0.100018 -4.71657e-05 0)
(0.100109 -8.91408e-05 0)
(0.100256 -0.00012683 0)
(0.100447 -0.000160842 0)
(0.100676 -0.000192109 0)
(0.100938 -0.00022118 0)
(0.101231 -0.000248416 0)
(0.10155 -0.0002741 0)
(0.101893 -0.000298439 0)
(0.102257 -0.000321587 0)
(0.102639 -0.000343652 0)
(0.103038 -0.00036471 0)
(0.103452 -0.000384815 0)
(0.10388 -0.000404009 0)
(0.104318 -0.000422328 0)
(0.104767 -0.000439814 0)
(0.105224 -0.000456523 0)
(0.105688 -0.000472526 0)
(0.106158 -0.000487915 0)
(0.106634 -0.000502802 0)
(0.107114 -0.000517313 0)
(0.107598 -0.000531586 0)
(0.108085 -0.000545763 0)
(0.108575 -0.000559981 0)
(0.109068 -0.00057437 0)
(0.109563 -0.00058904 0)
(0.11006 -0.000604081 0)
(0.110561 -0.000619556 0)
(0.111064 -0.000635502 0)
(0.111569 -0.000651927 0)
(0.112077 -0.000668813 0)
(0.112589 -0.000686116 0)
(0.113103 -0.000703769 0)
(0.113619 -0.000721686 0)
(0.114138 -0.000739762 0)
(0.11466 -0.000757878 0)
(0.115183 -0.000775901 0)
(0.115708 -0.000793688 0)
(0.116235 -0.000811087 0)
(0.116761 -0.000827935 0)
(0.117288 -0.000844061 0)
(0.117814 -0.000859284 0)
(0.118339 -0.000873413 0)
(0.118861 -0.000886243 0)
(0.119381 -0.000897556 0)
(0.119896 -0.000907114 0)
(0.120405 -0.00091466 0)
(0.120909 -0.000919912 0)
(0.121405 -0.000922555 0)
(0.121892 -0.000922241 0)
(0.122369 -0.000918576 0)
(0.122834 -0.000911117 0)
(0.123285 -0.000899354 0)
(0.123722 -0.000882705 0)
(0.124142 -0.000860496 0)
(0.124542 -0.000831942 0)
(0.124922 -0.000796124 0)
(0.125277 -0.000751956 0)
(0.125606 -0.00069815 0)
(0.125905 -0.000633163 0)
(0.126171 -0.000555132 0)
(0.126399 -0.000461795 0)
(0.126587 -0.000350377 0)
(0.126727 -0.00021745 0)
(0.126816 -5.87307e-05 0)
(0.126845 0.000131172 0)
(0.126808 0.00035919 0)
(0.126695 0.000634309 0)
(0.126497 0.000968261 0)
(0.126202 0.00137655 0)
(0.125798 0.00187988 0)
(0.125271 0.00250619 0)
(0.124606 0.0032934 0)
(0.123794 0.00429303 0)
(0.122828 0.00557464 0)
(0.121719 0.00722977 0)
(0.120506 0.00937179 0)
(0.119283 0.012122 0)
(0.118228 0.0155604 0)
(0.117656 0.0195819 0)
(0.117987 0.0235298 0)
(0.100017 -6.17561e-05 0)
(0.100105 -0.000117878 0)
(0.10025 -0.000168011 0)
(0.100439 -0.000213303 0)
(0.100666 -0.000254919 0)
(0.100926 -0.000293592 0)
(0.101216 -0.000329813 0)
(0.101533 -0.000363956 0)
(0.101873 -0.000396301 0)
(0.102235 -0.000427051 0)
(0.102614 -0.000456354 0)
(0.103011 -0.00048431 0)
(0.103422 -0.000510992 0)
(0.103846 -0.000536455 0)
(0.104282 -0.000560746 0)
(0.104727 -0.000583923 0)
(0.10518 -0.000606059 0)
(0.105641 -0.000627247 0)
(0.106108 -0.000647611 0)
(0.106579 -0.000667296 0)
(0.107055 -0.00068647 0)
(0.107535 -0.000705318 0)
(0.108017 -0.000724026 0)
(0.108502 -0.000742778 0)
(0.10899 -0.000761743 0)
(0.10948 -0.00078107 0)
(0.109972 -0.000800877 0)
(0.110467 -0.000821249 0)
(0.110963 -0.000842233 0)
(0.111463 -0.000863844 0)
(0.111965 -0.000886054 0)
(0.112469 -0.000908807 0)
(0.112976 -0.000932015 0)
(0.113485 -0.000955562 0)
(0.113996 -0.000979309 0)
(0.11451 -0.0010031 0)
(0.115025 -0.00102675 0)
(0.115541 -0.00105008 0)
(0.116058 -0.00107289 0)
(0.116576 -0.00109495 0)
(0.117093 -0.00111605 0)
(0.11761 -0.00113594 0)
(0.118124 -0.00115437 0)
(0.118636 -0.00117106 0)
(0.119145 -0.00118574 0)
(0.119649 -0.00119809 0)
(0.120148 -0.00120776 0)
(0.12064 -0.0012144 0)
(0.121125 -0.00121758 0)
(0.121601 -0.00121685 0)
(0.122066 -0.00121171 0)
(0.12252 -0.00120156 0)
(0.12296 -0.00118576 0)
(0.123386 -0.00116354 0)
(0.123794 -0.00113405 0)
(0.124184 -0.00109628 0)
(0.124554 -0.00104904 0)
(0.1249 -0.000990964 0)
(0.125221 -0.00092042 0)
(0.125513 -0.000835468 0)
(0.125774 -0.000733785 0)
(0.126 -0.000612569 0)
(0.126188 -0.000468416 0)
(0.126333 -0.000297161 0)
(0.126431 -9.3676e-05 0)
(0.126476 0.000148378 0)
(0.126464 0.000436981 0)
(0.126388 0.000782259 0)
(0.126242 0.00119709 0)
(0.126021 0.00169795 0)
(0.125719 0.00230599 0)
(0.125331 0.00304838 0)
(0.12486 0.00395988 0)
(0.124311 0.00508443 0)
(0.123703 0.00647597 0)
(0.123073 0.00819711 0)
(0.122489 0.0103118 0)
(0.122059 0.0128652 0)
(0.121943 0.0158378 0)
(0.122337 0.0190563 0)
(0.123394 0.0220546 0)
(0.100015 -7.68511e-05 0)
(0.100102 -0.000148037 0)
(0.100244 -0.000211418 0)
(0.10043 -0.000268755 0)
(0.100654 -0.000321423 0)
(0.100912 -0.000370343 0)
(0.101199 -0.000416142 0)
(0.101513 -0.000459296 0)
(0.10185 -0.00050016 0)
(0.102208 -0.000538994 0)
(0.102584 -0.000575982 0)
(0.102977 -0.000611257 0)
(0.103385 -0.000644909 0)
(0.103805 -0.000677007 0)
(0.104236 -0.000707613 0)
(0.104677 -0.000736798 0)
(0.105126 -0.000764654 0)
(0.105582 -0.0007913 0)
(0.106044 -0.000816888 0)
(0.106511 -0.000841602 0)
(0.106982 -0.000865656 0)
(0.107456 -0.000889277 0)
(0.107932 -0.000912703 0)
(0.108412 -0.000936166 0)
(0.108893 -0.000959877 0)
(0.109377 -0.000984025 0)
(0.109862 -0.00100876 0)
(0.110349 -0.00103419 0)
(0.110839 -0.00106037 0)
(0.11133 -0.00108732 0)
(0.111824 -0.00111501 0)
(0.11232 -0.00114337 0)
(0.112818 -0.00117228 0)
(0.113318 -0.00120161 0)
(0.11382 -0.00123117 0)
(0.114323 -0.00126076 0)
(0.114828 -0.00129017 0)
(0.115334 -0.00131916 0)
(0.11584 -0.00134747 0)
(0.116346 -0.00137483 0)
(0.116851 -0.00140095 0)
(0.117356 -0.00142553 0)
(0.117858 -0.00144826 0)
(0.118357 -0.0014688 0)
(0.118853 -0.00148679 0)
(0.119344 -0.00150183 0)
(0.11983 -0.00151351 0)
(0.120308 -0.00152136 0)
(0.120779 -0.00152488 0)
(0.121241 -0.00152351 0)
(0.121693 -0.00151661 0)
(0.122133 -0.00150347 0)
(0.12256 -0.00148329 0)
(0.122972 -0.00145516 0)
(0.123368 -0.00141802 0)
(0.123746 -0.00137066 0)
(0.124104 -0.00131168 0)
(0.12444 -0.00123943 0)
(0.124752 -0.00115199 0)
(0.125037 -0.00104709 0)
(0.125293 -0.000922028 0)
(0.125517 -0.000773592 0)
(0.125707 -0.000597917 0)
(0.125859 -0.000390344 0)
(0.12597 -0.000145232 0)
(0.126037 0.000144237 0)
(0.126056 0.000486415 0)
(0.126025 0.000891617 0)
(0.125941 0.00137255 0)
(0.125804 0.00194483 0)
(0.125614 0.00262757 0)
(0.125376 0.00344398 0)
(0.125099 0.00442169 0)
(0.124802 0.00559267 0)
(0.124514 0.00699184 0)
(0.124281 0.00865324 0)
(0.124168 0.0106017 0)
(0.124267 0.012836 0)
(0.124686 0.0153011 0)
(0.125531 0.0178457 0)
(0.126841 0.0201827 0)
(0.100013 -9.24638e-05 0)
(0.100099 -0.000179597 0)
(0.100238 -0.000257042 0)
(0.100421 -0.000327205 0)
(0.100641 -0.000391656 0)
(0.100895 -0.000451496 0)
(0.101179 -0.000507494 0)
(0.101489 -0.000560234 0)
(0.101822 -0.000610151 0)
(0.102176 -0.000657564 0)
(0.102549 -0.000702702 0)
(0.102937 -0.000745725 0)
(0.10334 -0.000786747 0)
(0.103755 -0.000825853 0)
(0.104182 -0.000863118 0)
(0.104618 -0.000898629 0)
(0.105062 -0.000932496 0)
(0.105512 -0.000964864 0)
(0.105968 -0.000995918 0)
(0.106429 -0.00102588 0)
(0.106894 -0.00105501 0)
(0.107361 -0.00108359 0)
(0.107831 -0.0011119 0)
(0.108303 -0.00114022 0)
(0.108777 -0.00116882 0)
(0.109253 -0.00119792 0)
(0.10973 -0.0012277 0)
(0.110209 -0.0012583 0)
(0.11069 -0.0012898 0)
(0.111172 -0.0013222 0)
(0.111656 -0.00135548 0)
(0.112142 -0.00138954 0)
(0.11263 -0.00142426 0)
(0.113119 -0.00145945 0)
(0.113609 -0.0014949 0)
(0.114101 -0.00153038 0)
(0.114593 -0.0015656 0)
(0.115086 -0.00160029 0)
(0.11558 -0.00163412 0)
(0.116072 -0.00166678 0)
(0.116564 -0.00169791 0)
(0.117054 -0.00172715 0)
(0.117542 -0.00175412 0)
(0.118027 -0.0017784 0)
(0.118507 -0.00179957 0)
(0.118983 -0.00181716 0)
(0.119453 -0.00183065 0)
(0.119916 -0.00183951 0)
(0.120371 -0.00184313 0)
(0.120817 -0.00184084 0)
(0.121253 -0.00183189 0)
(0.121677 -0.00181546 0)
(0.122088 -0.0017906 0)
(0.122486 -0.00175626 0)
(0.122867 -0.00171121 0)
(0.123232 -0.00165407 0)
(0.123577 -0.00158324 0)
(0.123902 -0.00149686 0)
(0.124205 -0.00139278 0)
(0.124483 -0.00126849 0)
(0.124735 -0.00112104 0)
(0.124959 -0.000946954 0)
(0.125152 -0.000742127 0)
(0.125314 -0.000501696 0)
(0.125442 -0.000219895 0)
(0.125534 0.000110068 0)
(0.12559 0.000496253 0)
(0.125609 0.000948237 0)
(0.125593 0.00147742 0)
(0.125544 0.00209716 0)
(0.125468 0.0028229 0)
(0.125375 0.00367213 0)
(0.125279 0.00466395 0)
(0.125203 0.00581799 0)
(0.125177 0.00715232 0)
(0.125242 0.00867948 0)
(0.125453 0.0104 0)
(0.125873 0.012292 0)
(0.126566 0.0142976 0)
(0.12758 0.0163074 0)
(0.128915 0.0181551 0)
(0.100012 -0.000108612 0)
(0.100096 -0.000212545 0)
(0.100232 -0.000304878 0)
(0.10041 -0.000388656 0)
(0.100627 -0.000465639 0)
(0.100877 -0.000537093 0)
(0.101157 -0.000603932 0)
(0.101462 -0.000666853 0)
(0.101791 -0.000726374 0)
(0.10214 -0.000782878 0)
(0.102508 -0.000836639 0)
(0.102891 -0.000887852 0)
(0.103289 -0.000936652 0)
(0.103698 -0.00098314 0)
(0.104119 -0.00102741 0)
(0.104549 -0.00106956 0)
(0.104987 -0.00110973 0)
(0.105431 -0.00114807 0)
(0.10588 -0.00118483 0)
(0.106334 -0.00122024 0)
(0.106791 -0.00125463 0)
(0.107251 -0.00128832 0)
(0.107713 -0.00132165 0)
(0.108177 -0.00135496 0)
(0.108643 -0.00138855 0)
(0.10911 -0.00142269 0)
(0.109578 -0.00145761 0)
(0.110047 -0.00149345 0)
(0.110517 -0.00153031 0)
(0.110989 -0.00156822 0)
(0.111462 -0.00160714 0)
(0.111936 -0.00164695 0)
(0.112412 -0.0016875 0)
(0.112888 -0.00172858 0)
(0.113365 -0.00176994 0)
(0.113844 -0.00181129 0)
(0.114322 -0.00185231 0)
(0.114801 -0.00189266 0)
(0.115279 -0.00193198 0)
(0.115757 -0.00196986 0)
(0.116233 -0.00200591 0)
(0.116707 -0.0020397 0)
(0.117178 -0.00207076 0)
(0.117646 -0.00209863 0)
(0.118109 -0.00212279 0)
(0.118568 -0.00214271 0)
(0.11902 -0.00215779 0)
(0.119465 -0.00216739 0)
(0.119903 -0.00217083 0)
(0.120331 -0.00216734 0)
(0.120749 -0.00215606 0)
(0.121156 -0.00213607 0)
(0.121551 -0.00210629 0)
(0.121932 -0.00206555 0)
(0.122298 -0.00201249 0)
(0.122648 -0.00194559 0)
(0.12298 -0.0018631 0)
(0.123294 -0.00176302 0)
(0.123587 -0.00164306 0)
(0.123859 -0.00150057 0)
(0.124107 -0.00133249 0)
(0.124332 -0.00113528 0)
(0.124531 -0.00090484 0)
(0.124705 -0.000636401 0)
(0.124852 -0.000324448 0)
(0.124973 3.73653e-05 0)
(0.125068 0.000456078 0)
(0.12514 0.000939921 0)
(0.125192 0.0014982 0)
(0.12523 0.00214123 0)
(0.125262 0.0028801 0)
(0.125299 0.0037263 0)
(0.125358 0.00469092 0)
(0.12546 0.0057834 0)
(0.125632 0.00700955 0)
(0.125906 0.00836862 0)
(0.12632 0.00984929 0)
(0.126913 0.0114246 0)
(0.127721 0.0130464 0)
(0.128761 0.0146422 0)
(0.130021 0.016118 0)
(0.10001 -0.000125317 0)
(0.100092 -0.000246871 0)
(0.100225 -0.000354918 0)
(0.1004 -0.000453102 0)
(0.100612 -0.000543374 0)
(0.100858 -0.000627151 0)
(0.101132 -0.000705492 0)
(0.101433 -0.000779203 0)
(0.101756 -0.000848894 0)
(0.1021 -0.000915013 0)
(0.102461 -0.000977882 0)
(0.102839 -0.00103773 0)
(0.10323 -0.00109472 0)
(0.103634 -0.00114897 0)
(0.104048 -0.00120058 0)
(0.104471 -0.00124969 0)
(0.104901 -0.00129643 0)
(0.105338 -0.00134101 0)
(0.10578 -0.00138367 0)
(0.106225 -0.00142473 0)
(0.106674 -0.00146454 0)
(0.107126 -0.00150347 0)
(0.107579 -0.00154194 0)
(0.108034 -0.00158031 0)
(0.108489 -0.00161896 0)
(0.108946 -0.00165819 0)
(0.109404 -0.00169827 0)
(0.109862 -0.00173938 0)
(0.110321 -0.00178162 0)
(0.110781 -0.00182503 0)
(0.111241 -0.00186956 0)
(0.111702 -0.00191509 0)
(0.112164 -0.00196143 0)
(0.112627 -0.00200835 0)
(0.113089 -0.00205555 0)
(0.113553 -0.0021027 0)
(0.114016 -0.00214943 0)
(0.114478 -0.00219534 0)
(0.11494 -0.00224 0)
(0.1154 -0.00228297 0)
(0.115859 -0.00232377 0)
(0.116315 -0.0023619 0)
(0.116768 -0.00239685 0)
(0.117217 -0.00242807 0)
(0.117662 -0.00245498 0)
(0.118101 -0.00247695 0)
(0.118534 -0.00249333 0)
(0.11896 -0.00250339 0)
(0.119378 -0.00250637 0)
(0.119787 -0.0025014 0)
(0.120186 -0.00248755 0)
(0.120575 -0.00246379 0)
(0.120952 -0.00242896 0)
(0.121315 -0.00238179 0)
(0.121665 -0.00232082 0)
(0.122 -0.00224444 0)
(0.122319 -0.00215083 0)
(0.122621 -0.00203792 0)
(0.122905 -0.00190337 0)
(0.123171 -0.00174452 0)
(0.123417 -0.00155838 0)
(0.123644 -0.00134151 0)
(0.12385 -0.00109005 0)
(0.124037 -0.000799616 0)
(0.124205 -0.000465296 0)
(0.124356 -8.16059e-05 0)
(0.124491 0.00035728 0)
(0.124614 0.000857693 0)
(0.124731 0.00142649 0)
(0.124848 0.00207074 0)
(0.124974 0.00279734 0)
(0.12512 0.00361252 0)
(0.125302 0.00452105 0)
(0.125538 0.00552517 0)
(0.125848 0.00662321 0)
(0.126254 0.00780778 0)
(0.126783 0.00906382 0)
(0.127454 0.0103666 0)
(0.128285 0.0116804 0)
(0.129281 0.0129589 0)
(0.130428 0.0141495 0)
(0.100008 -0.000142597 0)
(0.100089 -0.000282565 0)
(0.100218 -0.000407149 0)
(0.100389 -0.000520526 0)
(0.100596 -0.000624848 0)
(0.100837 -0.000721665 0)
(0.101106 -0.000812175 0)
(0.101401 -0.000897298 0)
(0.101718 -0.000977733 0)
(0.102055 -0.001054 0)
(0.10241 -0.00112646 0)
(0.102781 -0.0011954 0)
(0.103165 -0.00126098 0)
(0.103562 -0.00132337 0)
(0.103968 -0.00138267 0)
(0.104383 -0.00143903 0)
(0.104805 -0.00149262 0)
(0.105233 -0.00154366 0)
(0.105666 -0.00159244 0)
(0.106103 -0.00163931 0)
(0.106543 -0.00168467 0)
(0.106985 -0.00172896 0)
(0.107428 -0.00177263 0)
(0.107872 -0.00181612 0)
(0.108317 -0.00185985 0)
(0.108763 -0.00190418 0)
(0.109208 -0.0019494 0)
(0.109654 -0.00199573 0)
(0.110101 -0.00204329 0)
(0.110547 -0.00209213 0)
(0.110994 -0.00214218 0)
(0.111441 -0.00219332 0)
(0.111888 -0.00224534 0)
(0.112335 -0.00229796 0)
(0.112781 -0.00235086 0)
(0.113228 -0.00240364 0)
(0.113674 -0.0024559 0)
(0.114119 -0.00250717 0)
(0.114562 -0.00255697 0)
(0.115004 -0.00260478 0)
(0.115443 -0.00265008 0)
(0.11588 -0.0026923 0)
(0.116313 -0.00273086 0)
(0.116742 -0.00276513 0)
(0.117166 -0.00279447 0)
(0.117585 -0.00281819 0)
(0.117997 -0.00283556 0)
(0.118403 -0.00284578 0)
(0.1188 -0.00284802 0)
(0.119189 -0.00284133 0)
(0.119568 -0.00282473 0)
(0.119937 -0.00279709 0)
(0.120295 -0.00275722 0)
(0.120641 -0.00270376 0)
(0.120974 -0.00263523 0)
(0.121293 -0.00254998 0)
(0.121599 -0.00244617 0)
(0.121889 -0.00232176 0)
(0.122165 -0.00217446 0)
(0.122425 -0.00200175 0)
(0.12267 -0.00180081 0)
(0.122899 -0.00156852 0)
(0.123113 -0.00130144 0)
(0.123314 -0.000995829 0)
(0.123503 -0.000647598 0)
(0.123682 -0.000252397 0)
(0.123855 0.000194351 0)
(0.124025 0.000696914 0)
(0.124199 0.00125969 0)
(0.124382 0.00188678 0)
(0.124585 0.0025816 0)
(0.124817 0.00334636 0)
(0.125089 0.0041815 0)
(0.125417 0.00508494 0)
(0.125814 0.00605125 0)
(0.126296 0.00707084 0)
(0.126876 0.00812916 0)
(0.127566 0.00920631 0)
(0.128372 0.0102771 0)
(0.129294 0.0113127 0)
(0.130318 0.0122832 0)
(0.100007 -0.000160466 0)
(0.100085 -0.000319613 0)
(0.100211 -0.000461546 0)
(0.100377 -0.000590894 0)
(0.100579 -0.00071002 0)
(0.100814 -0.000820595 0)
(0.101077 -0.000923944 0)
(0.101366 -0.0010211 0)
(0.101676 -0.00111286 0)
(0.102007 -0.0011998 0)
(0.102354 -0.00128235 0)
(0.102717 -0.00136082 0)
(0.103094 -0.00143542 0)
(0.103482 -0.0015063 0)
(0.103879 -0.00157363 0)
(0.104286 -0.00163753 0)
(0.104699 -0.00169822 0)
(0.105117 -0.00175595 0)
(0.105541 -0.00181103 0)
(0.105967 -0.00186385 0)
(0.106397 -0.00191487 0)
(0.106828 -0.00196459 0)
(0.10726 -0.0020135 0)
(0.107693 -0.00206212 0)
(0.108126 -0.0021109 0)
(0.108559 -0.00216027 0)
(0.108992 -0.00221055 0)
(0.109424 -0.002262 0)
(0.109857 -0.00231476 0)
(0.110289 -0.00236887 0)
(0.11072 -0.00242428 0)
(0.111151 -0.00248085 0)
(0.111582 -0.00253834 0)
(0.112012 -0.00259645 0)
(0.112442 -0.00265481 0)
(0.11287 -0.00271297 0)
(0.113297 -0.00277049 0)
(0.113723 -0.00282683 0)
(0.114147 -0.00288147 0)
(0.114569 -0.00293382 0)
(0.114988 -0.00298329 0)
(0.115403 -0.00302926 0)
(0.115815 -0.00307106 0)
(0.116223 -0.00310804 0)
(0.116625 -0.00313947 0)
(0.117022 -0.00316459 0)
(0.117412 -0.00318262 0)
(0.117796 -0.00319271 0)
(0.118172 -0.00319396 0)
(0.118539 -0.00318537 0)
(0.118897 -0.00316591 0)
(0.119246 -0.00313443 0)
(0.119584 -0.00308969 0)
(0.119912 -0.00303032 0)
(0.120228 -0.00295485 0)
(0.120532 -0.00286166 0)
(0.120824 -0.00274896 0)
(0.121104 -0.00261482 0)
(0.121371 -0.00245712 0)
(0.121626 -0.00227357 0)
(0.121869 -0.00206167 0)
(0.122101 -0.00181874 0)
(0.122323 -0.00154194 0)
(0.122537 -0.00122825 0)
(0.122745 -0.000874572 0)
(0.12295 -0.000477735 0)
(0.123155 -3.45794e-05 0)
(0.123365 0.000457564 0)
(0.123585 0.00100081 0)
(0.123821 0.00159687 0)
(0.124081 0.00224658 0)
(0.124373 0.00294946 0)
(0.124707 0.00370339 0)
(0.125091 0.00450418 0)
(0.125536 0.00534517 0)
(0.12605 0.00621697 0)
(0.126642 0.00710733 0)
(0.127315 0.00800123 0)
(0.128071 0.00888157 0)
(0.128907 0.00973024 0)
(0.129814 0.0105302 0)
(0.100005 -0.000178931 0)
(0.100082 -0.00035799 0)
(0.100204 -0.000518066 0)
(0.100365 -0.000664151 0)
(0.100562 -0.000798822 0)
(0.10079 -0.000923862 0)
(0.101047 -0.00104071 0)
(0.101328 -0.00115053 0)
(0.101631 -0.00125418 0)
(0.101954 -0.00135232 0)
(0.102293 -0.00144544 0)
(0.102648 -0.00153388 0)
(0.103015 -0.00161789 0)
(0.103394 -0.00169764 0)
(0.103782 -0.00177329 0)
(0.104178 -0.00184503 0)
(0.104581 -0.00191306 0)
(0.104989 -0.00197766 0)
(0.105402 -0.00203919 0)
(0.105817 -0.00209809 0)
(0.106235 -0.00215485 0)
(0.106654 -0.00221003 0)
(0.107074 -0.00226418 0)
(0.107494 -0.00231788 0)
(0.107914 -0.00237165 0)
(0.108334 -0.00242594 0)
(0.108753 -0.00248115 0)
(0.109171 -0.00253754 0)
(0.109588 -0.00259529 0)
(0.110004 -0.00265445 0)
(0.110419 -0.00271497 0)
(0.110834 -0.0027767 0)
(0.111247 -0.00283937 0)
(0.111659 -0.00290266 0)
(0.112069 -0.00296614 0)
(0.112478 -0.00302934 0)
(0.112886 -0.00309176 0)
(0.113291 -0.0031528 0)
(0.113694 -0.00321189 0)
(0.114095 -0.00326838 0)
(0.114492 -0.00332162 0)
(0.114885 -0.00337092 0)
(0.115275 -0.00341558 0)
(0.115659 -0.00345485 0)
(0.116039 -0.00348798 0)
(0.116413 -0.00351415 0)
(0.11678 -0.00353252 0)
(0.117141 -0.00354221 0)
(0.117494 -0.00354227 0)
(0.11784 -0.00353168 0)
(0.118176 -0.00350939 0)
(0.118504 -0.00347423 0)
(0.118823 -0.00342499 0)
(0.119132 -0.00336031 0)
(0.119431 -0.0032788 0)
(0.11972 -0.0031789 0)
(0.119998 -0.00305898 0)
(0.120267 -0.00291728 0)
(0.120526 -0.00275193 0)
(0.120775 -0.00256095 0)
(0.121017 -0.00234227 0)
(0.121251 -0.00209373 0)
(0.12148 -0.00181315 0)
(0.121704 -0.00149832 0)
(0.121928 -0.00114712 0)
(0.122154 -0.000757515 0)
(0.122384 -0.000327679 0)
(0.122625 0.000143942 0)
(0.122879 0.000657676 0)
(0.123153 0.00121344 0)
(0.123452 0.00181033 0)
(0.123783 0.00244637 0)
(0.124151 0.00311822 0)
(0.124564 0.00382104 0)
(0.125026 0.00454836 0)
(0.125544 0.00529209 0)
(0.12612 0.00604259 0)
(0.126756 0.00678902 0)
(0.127451 0.00751986 0)
(0.128201 0.00822379 0)
(0.129 0.00889093 0)
(0.100002 -0.000197988 0)
(0.100078 -0.000397659 0)
(0.100196 -0.000576645 0)
(0.100352 -0.000740208 0)
(0.100543 -0.000891143 0)
(0.100765 -0.00103134 0)
(0.101014 -0.00116234 0)
(0.101288 -0.00128541 0)
(0.101583 -0.00140151 0)
(0.101896 -0.00151137 0)
(0.102227 -0.00161553 0)
(0.102572 -0.00171437 0)
(0.102929 -0.00180816 0)
(0.103298 -0.00189711 0)
(0.103675 -0.00198139 0)
(0.104061 -0.00206121 0)
(0.104452 -0.00213679 0)
(0.104849 -0.00220844 0)
(0.105249 -0.00227656 0)
(0.105653 -0.00234161 0)
(0.106058 -0.00240415 0)
(0.106464 -0.00246478 0)
(0.10687 -0.00252413 0)
(0.107276 -0.00258282 0)
(0.107682 -0.00264143 0)
(0.108087 -0.00270048 0)
(0.10849 -0.00276039 0)
(0.108893 -0.00282148 0)
(0.109293 -0.00288394 0)
(0.109693 -0.00294784 0)
(0.11009 -0.00301314 0)
(0.110486 -0.00307966 0)
(0.110881 -0.00314713 0)
(0.111273 -0.00321518 0)
(0.111664 -0.00328337 0)
(0.112053 -0.00335118 0)
(0.112439 -0.00341803 0)
(0.112823 -0.00348332 0)
(0.113203 -0.00354638 0)
(0.113581 -0.00360654 0)
(0.113955 -0.00366307 0)
(0.114326 -0.00371524 0)
(0.114691 -0.00376228 0)
(0.115052 -0.00380342 0)
(0.115408 -0.00383784 0)
(0.115758 -0.0038647 0)
(0.116102 -0.00388312 0)
(0.116439 -0.00389217 0)
(0.11677 -0.00389091 0)
(0.117092 -0.00387832 0)
(0.117407 -0.00385334 0)
(0.117714 -0.00381485 0)
(0.118013 -0.00376165 0)
(0.118303 -0.00369251 0)
(0.118585 -0.00360609 0)
(0.118858 -0.00350101 0)
(0.119123 -0.00337582 0)
(0.119381 -0.00322899 0)
(0.119631 -0.00305898 0)
(0.119875 -0.00286417 0)
(0.120113 -0.00264297 0)
(0.120348 -0.00239377 0)
(0.120581 -0.00211504 0)
(0.120813 -0.00180537 0)
(0.121048 -0.00146349 0)
(0.121289 -0.0010884 0)
(0.121537 -0.000679363 0)
(0.121798 -0.000235977 0)
(0.122075 0.000241714 0)
(0.122371 0.000752039 0)
(0.122692 0.00129308 0)
(0.123042 0.00186216 0)
(0.123424 0.00245564 0)
(0.123843 0.00306888 0)
(0.124302 0.00369625 0)
(0.124804 0.00433122 0)
(0.125349 0.00496656 0)
(0.125937 0.00559459 0)
(0.126567 0.00620762 0)
(0.127235 0.00679848 0)
(0.127936 0.0073614 0)
(0.1 -0.000217619 0)
(0.100074 -0.000438562 0)
(0.100189 -0.000637183 0)
(0.100339 -0.000818936 0)
(0.100523 -0.00098682 0)
(0.100738 -0.00114283 0)
(0.10098 -0.00128861 0)
(0.101245 -0.00142551 0)
(0.10153 -0.0015546 0)
(0.101835 -0.00167667 0)
(0.102155 -0.0017923 0)
(0.102489 -0.00190193 0)
(0.102836 -0.00200586 0)
(0.103193 -0.00210432 0)
(0.103559 -0.0021975 0)
(0.103932 -0.00228562 0)
(0.104311 -0.00236893 0)
(0.104695 -0.00244777 0)
(0.105083 -0.00252255 0)
(0.105472 -0.00259379 0)
(0.105863 -0.0026621 0)
(0.106255 -0.00272813 0)
(0.106647 -0.00279257 0)
(0.107038 -0.0028561 0)
(0.107428 -0.00291936 0)
(0.107817 -0.00298291 0)
(0.108204 -0.00304725 0)
(0.108589 -0.00311271 0)
(0.108972 -0.00317952 0)
(0.109353 -0.00324777 0)
(0.109732 -0.00331741 0)
(0.110108 -0.00338827 0)
(0.110483 -0.00346006 0)
(0.110855 -0.00353238 0)
(0.111224 -0.00360475 0)
(0.111591 -0.00367663 0)
(0.111955 -0.00374739 0)
(0.112316 -0.00381637 0)
(0.112674 -0.00388286 0)
(0.113028 -0.00394612 0)
(0.113378 -0.00400541 0)
(0.113724 -0.00405992 0)
(0.114065 -0.00410886 0)
(0.114402 -0.00415141 0)
(0.114733 -0.00418671 0)
(0.115059 -0.0042139 0)
(0.115378 -0.00423208 0)
(0.115692 -0.00424034 0)
(0.115998 -0.00423772 0)
(0.116298 -0.00422322 0)
(0.116591 -0.00419583 0)
(0.116876 -0.00415449 0)
(0.117155 -0.00409808 0)
(0.117426 -0.00402548 0)
(0.11769 -0.00393551 0)
(0.117948 -0.00382697 0)
(0.118199 -0.00369863 0)
(0.118445 -0.00354926 0)
(0.118686 -0.00337764 0)
(0.118923 -0.00318257 0)
(0.119157 -0.0029629 0)
(0.11939 -0.00271759 0)
(0.119624 -0.0024457 0)
(0.11986 -0.00214648 0)
(0.120101 -0.00181943 0)
(0.120349 -0.00146429 0)
(0.120607 -0.00108116 0)
(0.120878 -0.000670496 0)
(0.121165 -0.000233055 0)
(0.121472 0.000229935 0)
(0.1218 0.000715562 0)
(0.122153 0.00122087 0)
(0.122533 0.00174237 0)
(0.122943 0.00227605 0)
(0.123384 0.00281729 0)
(0.123856 0.00336107 0)
(0.124361 0.00390209 0)
(0.124897 0.00443496 0)
(0.125462 0.00495455 0)
(0.126053 0.00545629 0)
(0.126666 0.00593677 0)
(0.0999977 -0.000237792 0)
(0.10007 -0.000480616 0)
(0.100181 -0.000699544 0)
(0.100325 -0.00090015 0)
(0.100503 -0.00108563 0)
(0.10071 -0.00125806 0)
(0.100943 -0.0014192 0)
(0.101198 -0.00157048 0)
(0.101474 -0.00171305 0)
(0.101768 -0.00184777 0)
(0.102077 -0.00197529 0)
(0.1024 -0.00209607 0)
(0.102735 -0.00221045 0)
(0.103079 -0.00231869 0)
(0.103432 -0.00242099 0)
(0.103792 -0.00251759 0)
(0.104158 -0.00260877 0)
(0.104528 -0.00269487 0)
(0.1049 -0.00277636 0)
(0.105275 -0.00285379 0)
(0.105651 -0.00292781 0)
(0.106027 -0.00299912 0)
(0.106403 -0.00306848 0)
(0.106778 -0.00313663 0)
(0.107151 -0.00320427 0)
(0.107522 -0.00327202 0)
(0.107891 -0.00334041 0)
(0.108258 -0.00340983 0)
(0.108622 -0.00348054 0)
(0.108983 -0.00355265 0)