/*--------------------------------*- C++ -*----------------------------------*\
| =========                 |                                                 |
| \\      /  F ield         | OpenFOAM: The Open Source CFD Toolbox           |
|  \\    /   O peration     | Version:  2106                                  |
|   \\  /    A nd           | Website:  www.openfoam.com                      |
|    \\/     M anipulation  |                                                 |
\*---------------------------------------------------------------------------*/
FoamFile
{
    version     2.0;
    format      ascii;
    arch        "LSB;label=32;scalar=64";
    class       surfaceScalarField;
    location    "4.2";
    object      phi;
}
// * * * * * * * * * * * * * * * * * * * * * * * * * * * * * * * * * * * * * //

dimensions      [1 0 -1 0 0 0 0];

oriented        oriented;

internalField   nonuniform List<scalar> 
23692
(
9.31664e-05
-8.69162e-08
9.33237e-05
-1.5723e-07
9.35434e-05
-2.19622e-07
9.38178e-05
-2.74336e-07
9.41411e-05
-3.23173e-07
9.45085e-05
-3.67237e-07
9.4916e-05
-4.07263e-07
9.536e-05
-4.43839e-07
9.58377e-05
-4.77421e-07
9.63463e-05
-5.08368e-07
9.68836e-05
-5.36977e-07
9.74474e-05
-5.63485e-07
9.80358e-05
-5.88091e-07
9.86471e-05
-6.10962e-07
9.92797e-05
-6.32236e-07
9.99322e-05
-6.52028e-07
0.000100603
-6.70437e-07
0.000101291
-6.87544e-07
0.000101995
-7.0342e-07
0.000102713
-7.18122e-07
0.000103446
-7.317e-07
0.00010419
-7.44194e-07
0.000104946
-7.5564e-07
0.000105713
-7.66066e-07
0.000106489
-7.75495e-07
0.000107273
-7.83948e-07
0.000108065
-7.91441e-07
0.000108864
-7.97989e-07
0.000109668
-8.036e-07
0.000110477
-8.08283e-07
0.000111289
-8.12045e-07
0.000112105
-8.14894e-07
0.000112922
-8.1683e-07
0.00011374
-8.17856e-07
0.000114559
-8.17972e-07
0.000115376
-8.17178e-07
0.000116192
-8.15469e-07
0.000117006
-8.1284e-07
0.000117815
-8.09283e-07
0.000118621
-8.04788e-07
0.00011942
-7.9934e-07
0.000120214
-7.92922e-07
0.000121
-7.85512e-07
0.000121777
-7.77083e-07
0.000122545
-7.67601e-07
0.000123303
-7.57028e-07
0.000124048
-7.45315e-07
0.000124781
-7.32406e-07
0.0001255
-7.18236e-07
0.000126203
-7.02723e-07
0.000126889
-6.85776e-07
0.000127556
-6.67283e-07
0.000128204
-6.47114e-07
0.000128829
-6.25116e-07
0.000129431
-6.01104e-07
0.000130006
-5.74863e-07
0.000130552
-5.46132e-07
0.000131067
-5.14597e-07
0.000131547
-4.79884e-07
0.000131989
-4.41534e-07
0.000132388
-3.98986e-07
0.00013274
-3.51551e-07
0.000133039
-2.98366e-07
0.000133277
-2.38351e-07
0.000133448
-1.70129e-07
0.00013354
-9.19183e-08
0.000133541
-1.55758e-09
0.000133437
1.04378e-07
0.000133208
2.29807e-07
0.000132827
3.80738e-07
0.000132262
5.65463e-07
0.000131466
7.96046e-07
0.000130376
1.09048e-06
0.000128899
1.47637e-06
0.000126902
1.99725e-06
0.000124179
2.72368e-06
0.000120406
3.7726e-06
0.000115064
5.34284e-06
0.000107266
7.79733e-06
9.53943e-05
1.18724e-05
1.96538e-05
7.57406e-05
9.96898e-05
-1.77651e-07
9.98572e-05
-3.24545e-07
0.000100092
-4.5389e-07
0.000100384
-5.67118e-07
0.00010073
-6.68219e-07
0.000101122
-7.59421e-07
0.000101557
-8.42259e-07
0.000102031
-9.17946e-07
0.000102542
-9.87433e-07
0.000103085
-1.05147e-06
0.000103659
-1.11065e-06
0.000104261
-1.16549e-06
0.00010489
-1.21638e-06
0.000105543
-1.26369e-06
0.000106219
-1.30768e-06
0.000106916
-1.34861e-06
0.000107633
-1.38667e-06
0.000108368
-1.42204e-06
0.00010912
-1.45485e-06
0.000109887
-1.48523e-06
0.000110669
-1.51329e-06
0.000111465
-1.5391e-06
0.000112272
-1.56274e-06
0.000113091
-1.58427e-06
0.00011392
-1.60373e-06
0.000114757
-1.62118e-06
0.000115603
-1.63663e-06
0.000116456
-1.65013e-06
0.000117315
-1.66168e-06
0.000118178
-1.67132e-06
0.000119046
-1.67905e-06
0.000119916
-1.68489e-06
0.000120789
-1.68884e-06
0.000121662
-1.6909e-06
0.000122536
-1.69108e-06
0.000123409
-1.68938e-06
0.000124279
-1.68578e-06
0.000125147
-1.68028e-06
0.000126011
-1.67286e-06
0.000126871
-1.6635e-06
0.000127724
-1.65216e-06
0.00012857
-1.63882e-06
0.000129409
-1.62343e-06
0.000130238
-1.60594e-06
0.000131057
-1.58627e-06
0.000131865
-1.56434e-06
0.00013266
-1.54006e-06
0.000133441
-1.51331e-06
0.000134207
-1.48396e-06
0.000134957
-1.45184e-06
0.000135688
-1.41677e-06
0.0001364
-1.37851e-06
0.00013709
-1.3368e-06
0.000137756
-1.29134e-06
0.000138397
-1.24174e-06
0.00013901
-1.18756e-06
0.000139593
-1.12828e-06
0.000140142
-1.06326e-06
0.000140654
-9.91746e-07
0.000141125
-9.12811e-07
0.000141552
-8.25329e-07
0.000141929
-7.27915e-07
0.000142249
-6.18851e-07
0.000142507
-4.95983e-07
0.000142694
-3.56591e-07
0.000142799
-1.97198e-07
0.000142811
-1.3328e-08
0.000142715
2.01076e-07
0.000142491
4.53985e-07
0.000142115
7.5646e-07
0.000141557
1.12382e-06
0.000140776
1.57781e-06
0.000139716
2.14989e-06
0.000138306
2.88651e-06
0.000136446
3.85745e-06
0.000134002
5.16869e-06
0.000130794
6.98067e-06
0.000126605
9.53152e-06
0.000121237
1.31659e-05
0.00011482
1.82895e-05
2.46635e-05
0.00010981
0.000106669
-2.7168e-07
0.000106847
-5.01751e-07
0.000107095
-7.02648e-07
0.000107407
-8.78618e-07
0.000107775
-1.03567e-06
0.000108193
-1.17731e-06
0.000108657
-1.30592e-06
0.000109162
-1.42342e-06
0.000109706
-1.53127e-06
0.000110286
-1.63064e-06
0.000110898
-1.72248e-06
0.00011154
-1.80755e-06
0.000112211
-1.8865e-06
0.000112908
-1.95986e-06
0.000113628
-2.02807e-06
0.000114372
-2.09152e-06
0.000115136
-2.15051e-06
0.00011592
-2.20531e-06
0.000116722
-2.25615e-06
0.00011754
-2.30321e-06
0.000118374
-2.34665e-06
0.000119222
-2.3866e-06
0.000120083
-2.42317e-06
0.000120956
-2.45646e-06
0.000121839
-2.48655e-06
0.000122732
-2.51349e-06
0.000123633
-2.53734e-06
0.000124542
-2.55815e-06
0.000125457
-2.57594e-06
0.000126377
-2.59076e-06
0.000127301
-2.6026e-06
0.000128228
-2.61151e-06
0.000129157
-2.61748e-06
0.000130087
-2.62053e-06
0.000131017
-2.62065e-06
0.000131946
-2.61784e-06
0.000132873
-2.6121e-06
0.000133797
-2.60339e-06
0.000134716
-2.59171e-06
0.00013563
-2.57702e-06
0.000136538
-2.55927e-06
0.000137438
-2.53841e-06
0.00013833
-2.51437e-06
0.000139211
-2.48706e-06
0.000140082
-2.45638e-06
0.00014094
-2.42222e-06
0.000141785
-2.38442e-06
0.000142615
-2.3428e-06
0.000143428
-2.29716e-06
0.000144224
-2.24725e-06
0.000145001
-2.19278e-06
0.000145756
-2.13341e-06
0.000146488
-2.06873e-06
0.000147195
-1.99828e-06
0.000147876
-1.92149e-06
0.000148526
-1.83769e-06
0.000149144
-1.74609e-06
0.000149727
-1.64574e-06
0.000150271
-1.5355e-06
0.000150773
-1.41401e-06
0.000151227
-1.27958e-06
0.00015163
-1.13018e-06
0.000151974
-9.63287e-07
0.000152254
-7.75766e-07
0.000152462
-5.63683e-07
0.000152587
-3.22059e-07
0.000152618
-4.4517e-08
0.000152542
2.7722e-07
0.000152342
6.54098e-07
0.000151998
1.1008e-06
0.000151485
1.63718e-06
0.000150773
2.29041e-06
0.000149825
3.09814e-06
0.000148598
4.11293e-06
0.000147048
5.40836e-06
0.00014513
7.08628e-06
0.000142828
9.28285e-06
0.000140195
1.2165e-05
0.000137466
1.5895e-05
0.00013529
2.04652e-05
2.51388e-05
0.000134815
0.000114137
-3.68784e-07
0.000114324
-6.88414e-07
0.000114587
-9.6576e-07
0.000114918
-1.20896e-06
0.000115308
-1.42592e-06
0.000115752
-1.6215e-06
0.000116246
-1.79906e-06
0.000116784
-1.96123e-06
0.000117363
-2.11004e-06
0.00011798
-2.24712e-06
0.000118631
-2.37378e-06
0.000119315
-2.49108e-06
0.000120029
-2.59992e-06
0.000120771
-2.70102e-06
0.000121538
-2.79501e-06
0.000122329
-2.88241e-06
0.000123143
-2.96364e-06
0.000123977
-3.03908e-06
0.000124831
-3.10903e-06
0.000125702
-3.17376e-06
0.000126589
-3.23348e-06
0.000127492
-3.28839e-06
0.000128408
-3.33862e-06
0.000129336
-3.38431e-06
0.000130276
-3.42557e-06
0.000131225
-3.46249e-06
0.000132184
-3.49513e-06
0.00013315
-3.52356e-06
0.000134122
-3.54783e-06
0.0001351
-3.56798e-06
0.000136082
-3.58403e-06
0.000137067
-3.59602e-06
0.000138054
-3.60396e-06
0.000139042
-3.60785e-06
0.00014003
-3.6077e-06
0.000141016
-3.60351e-06
0.000142
-3.59527e-06
0.00014298
-3.58294e-06
0.000143955
-3.56651e-06
0.000144925
-3.54592e-06
0.000145887
-3.52112e-06
0.000146841
-3.49203e-06
0.000147786
-3.45856e-06
0.00014872
-3.4206e-06
0.000149642
-3.37801e-06
0.000150551
-3.33063e-06
0.000151445
-3.27824e-06
0.000152324
-3.22063e-06
0.000153185
-3.15751e-06
0.000154026
-3.08855e-06
0.000154847
-3.01336e-06
0.000155646
-2.93148e-06
0.00015642
-2.84239e-06
0.000157167
-2.74544e-06
0.000157886
-2.63989e-06
0.000158574
-2.52487e-06
0.000159227
-2.39932e-06
0.000159844
-2.26201e-06
0.00016042
-2.11145e-06
0.000160952
-1.94585e-06
0.000161436
-1.76307e-06
0.000161867
-1.56049e-06
0.000162239
-1.3349e-06
0.000162546
-1.08238e-06
0.00016278
-7.98022e-07
0.000162934
-4.75723e-07
0.000162998
-1.078e-07
0.00016296
3.1545e-07
0.000162807
8.06537e-07
0.000162527
1.38176e-06
0.000162102
2.06234e-06
0.000161516
2.87605e-06
0.000160755
3.85923e-06
0.000159809
5.05915e-06
0.000158682
6.53633e-06
0.000157403
8.36521e-06
0.000156056
1.06298e-05
0.000154815
1.34059e-05
0.000153999
1.67116e-05
0.000154079
2.03851e-05
2.38359e-05
0.000155382
0.000122128
-4.68864e-07
0.000122324
-8.84175e-07
0.000122601
-1.24303e-06
0.00012295
-1.55817e-06
0.000123364
-1.83921e-06
0.000123835
-2.09247e-06
0.000124358
-2.32231e-06
0.00012493
-2.53217e-06
0.000125545
-2.72469e-06
0.0001262
-2.90199e-06
0.000126892
-3.06574e-06
0.000127619
-3.21736e-06
0.000128377
-3.35799e-06
0.000129165
-3.48859e-06
0.000129981
-3.60995e-06
0.000130822
-3.72275e-06
0.000131686
-3.82757e-06
0.000132572
-3.92486e-06
0.000133479
-4.01503e-06
0.000134404
-4.09842e-06
0.000135347
-4.17532e-06
0.000136305
-4.24597e-06
0.000137277
-4.31055e-06
0.000138263
-4.36925e-06
0.00013926
-4.4222e-06
0.000140268
-4.46952e-06
0.000141285
-4.51129e-06
0.000142309
-4.54761e-06
0.000143341
-4.57853e-06
0.000144378
-4.60411e-06
0.000145419
-4.62438e-06
0.000146463
-4.63938e-06
0.000147508
-4.64913e-06
0.000148555
-4.65365e-06
0.000149601
-4.65294e-06
0.000150645
-4.647e-06
0.000151686
-4.6358e-06
0.000152723
-4.61933e-06
0.000153755
-4.59755e-06
0.00015478
-4.5704e-06
0.000155797
-4.53781e-06
0.000156805
-4.49969e-06
0.000157803
-4.45592e-06
0.000158789
-4.40636e-06
0.000159763
-4.35084e-06
0.000160722
-4.28916e-06
0.000161665
-4.22106e-06
0.000162591
-4.14626e-06
0.000163499
-4.0644e-06
0.000164386
-3.97508e-06
0.000165251
-3.87781e-06
0.000166092
-3.77204e-06
0.000166907
-3.6571e-06
0.000167694
-3.53222e-06
0.000168451
-3.39648e-06
0.000169175
-3.24881e-06
0.000169864
-3.08795e-06
0.000170515
-2.9124e-06
0.000171124
-2.72039e-06
0.000171689
-2.50979e-06
0.000172204
-2.27807e-06
0.000172666
-2.02218e-06
0.00017307
-1.73843e-06
0.00017341
-1.42234e-06
0.000173681
-1.06845e-06
0.000173875
-6.70016e-07
0.000173987
-2.18799e-07
0.000174007
2.95313e-07
0.000173929
8.84881e-07
0.000173745
1.56564e-06
0.000173451
2.3572e-06
0.000173043
3.28382e-06
0.000172527
4.37505e-06
0.000171921
5.66612e-06
0.00017126
7.19718e-06
0.000170615
9.01018e-06
0.000170105
1.11406e-05
0.000169911
1.35994e-05
0.000170286
1.63371e-05
0.00017149
1.91809e-05
2.17478e-05
0.000173579
0.000130678
-5.71923e-07
0.000130882
-1.08875e-06
0.000131174
-1.53427e-06
0.000131542
-1.92615e-06
0.000131978
-2.27566e-06
0.000132477
-2.5905e-06
0.000133031
-2.87616e-06
0.000133636
-3.13689e-06
0.000134287
-3.376e-06
0.000134982
-3.59612e-06
0.000135716
-3.79936e-06
0.000136487
-3.98746e-06
0.000137291
-4.16186e-06
0.000138127
-4.32375e-06
0.000138991
-4.47413e-06
0.000139883
-4.61384e-06
0.000140799
-4.74358e-06
0.000141739
-4.86395e-06
0.0001427
-4.97544e-06
0.000143681
-5.07849e-06
0.00014468
-5.17343e-06
0.000145695
-5.26059e-06
0.000146725
-5.34019e-06
0.000147769
-5.41246e-06
0.000148825
-5.47757e-06
0.000149892
-5.53565e-06
0.000150968
-5.58684e-06
0.000152053
-5.63123e-06
0.000153144
-5.6689e-06
0.00015424
-5.69992e-06
0.000155341
-5.72434e-06
0.000156444
-5.7422e-06
0.000157549
-5.75354e-06
0.000158655
-5.75836e-06
0.000159759
-5.75669e-06
0.000160861
-5.74851e-06
0.00016196
-5.73382e-06
0.000163054
-5.71258e-06
0.000164142
-5.68475e-06
0.000165222
-5.65026e-06
0.000166294
-5.60904e-06
0.000167356
-5.56098e-06
0.000168407
-5.50593e-06
0.000169445
-5.44374e-06
0.000170469
-5.3742e-06
0.000171477
-5.29707e-06
0.000172469
-5.21205e-06
0.000173442
-5.11881e-06
0.000174395
-5.01693e-06
0.000175326
-4.90593e-06
0.000176234
-4.78526e-06
0.000177117
-4.65425e-06
0.000177972
-4.51214e-06
0.000178798
-4.35802e-06
0.000179593
-4.19085e-06
0.000180354
-4.00941e-06
0.000181079
-3.81225e-06
0.000181765
-3.59768e-06
0.000182408
-3.36372e-06
0.000183007
-3.10802e-06
0.000183557
-2.82781e-06
0.000184055
-2.51978e-06
0.000184497
-2.18001e-06
0.000184879
-1.80381e-06
0.000185196
-1.38557e-06
0.000185445
-9.1857e-07
0.000185621
-3.94771e-07
0.000185721
1.95274e-07
0.000185744
8.63023e-07
0.000185688
1.62157e-06
0.000185559
2.48682e-06
0.000185366
3.47699e-06
0.000185129
4.61232e-06
0.000184881
5.91416e-06
0.000184675
7.40289e-06
0.000184592
9.09374e-06
0.000184743
1.09895e-05
0.000185275
1.30678e-05
0.00018635
1.52623e-05
0.000188094
1.74369e-05
1.93652e-05
0.000190477
0.000139826
-6.78031e-07
0.00014004
-1.30193e-06
0.000140345
-1.83929e-06
0.000140731
-2.31278e-06
0.000141191
-2.73525e-06
0.000141717
-3.11576e-06
0.000142302
-3.46091e-06
0.000142941
-3.77583e-06
0.00014363
-4.06454e-06
0.000144364
-4.33021e-06
0.000145141
-4.5754e-06
0.000145956
-4.80224e-06
0.000146807
-5.01245e-06
0.000147692
-5.20748e-06
0.000148607
-5.38856e-06
0.00014955
-5.55669e-06
0.00015052
-5.71272e-06
0.000151514
-5.85739e-06
0.00015253
-5.9913e-06
0.000153567
-6.11496e-06
0.000154624
-6.22881e-06
0.000155697
-6.3332e-06
0.000156786
-6.42844e-06
0.000157889
-6.51479e-06
0.000159004
-6.59246e-06
0.000160131
-6.66162e-06
0.000161268
-6.72243e-06
0.000162412
-6.775e-06
0.000163563
-6.81944e-06
0.00016472
-6.85583e-06
0.000165881
-6.88423e-06
0.000167044
-6.90471e-06
0.000168208
-6.91729e-06
0.000169373
-6.922e-06
0.000170536
-6.91886e-06
0.000171696
-6.90787e-06
0.000172852
-6.88902e-06
0.000174002
-6.86227e-06
0.000175146
-6.82759e-06
0.000176281
-6.78489e-06
0.000177407
-6.7341e-06
0.000178521
-6.67509e-06
0.000179624
-6.6077e-06
0.000180712
-6.53176e-06
0.000181786
-6.44703e-06
0.000182843
-6.35324e-06
0.000183881
-6.25007e-06
0.0001849
-6.13712e-06
0.000185898
-6.01393e-06
0.000186872
-5.87998e-06
0.000187822
-5.73463e-06
0.000188746
-5.57715e-06
0.000189641
-5.4067e-06
0.000190505
-5.22228e-06
0.000191338
-5.02276e-06
0.000192136
-4.80679e-06
0.000192897
-4.57284e-06
0.000193618
-4.3191e-06
0.000194299
-4.04347e-06
0.000194934
-3.74354e-06
0.000195523
-3.41643e-06
0.000196063
-3.05884e-06
0.00019655
-2.66689e-06
0.000196983
-2.23604e-06
0.000197358
-1.76101e-06
0.000197676
-1.23564e-06
0.000197934
-6.52798e-07
0.000198135
-5.02826e-09
0.00019828
7.18324e-07
0.000198376
1.52524e-06
0.000198436
2.42744e-06
0.000198477
3.43625e-06
0.000198527
4.56265e-06
0.000198626
5.81588e-06
0.000198827
7.20119e-06
0.000199205
8.71649e-06
0.000199847
1.03475e-05
0.000200854
1.20612e-05
0.000202319
1.37975e-05
0.000204293
1.54628e-05
1.693e-05
0.000206729
0.000149616
-7.87313e-07
0.000149837
-1.52354e-06
0.000150156
-2.15792e-06
0.000150561
-2.7179e-06
0.000151044
-3.21791e-06
0.000151597
-3.66826e-06
0.000152213
-4.0767e-06
0.000152887
-4.44925e-06
0.000153613
-4.79067e-06
0.000154388
-5.10471e-06
0.000155208
-5.39442e-06
0.000156068
-5.6623e-06
0.000156967
-5.91041e-06
0.0001579
-6.14049e-06
0.000158866
-6.35396e-06
0.000159862
-6.55204e-06
0.000160886
-6.73574e-06
0.000161935
-6.90593e-06
0.000163008
-7.06333e-06
0.000164102
-7.20854e-06
0.000165216
-7.34209e-06
0.000166348
-7.4644e-06
0.000167496
-7.57584e-06
0.000168659
-7.67672e-06
0.000169835
-7.76729e-06
0.000171022
-7.84776e-06
0.000172218
-7.91831e-06
0.000173423
-7.97909e-06
0.000174635
-8.03023e-06
0.000175852
-8.07182e-06
0.000177072
-8.10394e-06
0.000178295
-8.12667e-06
0.000179518
-8.14005e-06
0.000180741
-8.14412e-06
0.000181962
-8.13891e-06
0.000183179
-8.12441e-06
0.000184392
-8.10064e-06
0.000185598
-8.06755e-06
0.000186796
-8.0251e-06
0.000187985
-7.97322e-06
0.000189164
-7.91182e-06
0.00019033
-7.84076e-06
0.000191483
-7.7599e-06
0.000192621
-7.66902e-06
0.000193742
-7.56789e-06
0.000194846
-7.45621e-06
0.00019593
-7.33362e-06
0.000196993
-7.19971e-06
0.000198034
-7.05399e-06
0.00019905
-6.89588e-06
0.000200041
-6.72471e-06
0.000201004
-6.53972e-06
0.000201938
-6.34e-06
0.000202841
-6.12452e-06
0.000203711
-5.8921e-06
0.000204546
-5.64135e-06
0.000205344
-5.37071e-06
0.000206104
-5.07837e-06
0.000206823
-4.76224e-06
0.0002075
-4.41996e-06
0.000208133
-4.0488e-06
0.00020872
-3.64565e-06
0.00020926
-3.20695e-06
0.000209753
-2.72868e-06
0.000210199
-2.20631e-06
0.000210598
-1.63474e-06
0.000210954
-1.00836e-06
0.000211271
-3.21151e-07
0.000211556
4.33516e-07
0.00021182
1.26125e-06
0.00021208
2.16808e-06
0.000212357
3.15923e-06
0.000212682
4.23816e-06
0.000213093
5.40535e-06
0.000213637
6.65663e-06
0.000214373
7.98107e-06
0.000215362
9.35855e-06
0.000216667
1.0757e-05
0.000218334
1.21304e-05
0.000220379
1.34185e-05
1.45517e-05
0.000222757
0.00016009
-8.99902e-07
0.00016032
-1.75349e-06
0.000160653
-2.49e-06
0.000161076
-3.1413e-06
0.000161582
-3.72345e-06
0.000162162
-4.24789e-06
0.000162809
-4.72348e-06
0.000163517
-5.1572e-06
0.000164281
-5.55452e-06
0.000165097
-5.91983e-06
0.00016596
-6.25667e-06
0.000166866
-6.56795e-06
0.000167812
-6.85611e-06
0.000168796
-7.12314e-06
0.000169813
-7.37073e-06
0.000170862
-7.60029e-06
0.00017194
-7.81302e-06
0.000173045
-8.00993e-06
0.000174174
-8.19185e-06
0.000175326
-8.35951e-06
0.000176498
-8.51352e-06
0.000177689
-8.65438e-06
0.000178896
-8.78252e-06
0.000180119
-8.8983e-06
0.000181354
-9.00203e-06
0.000182601
-9.09395e-06
0.000183858
-9.17428e-06
0.000185123
-9.2432e-06
0.000186394
-9.30086e-06
0.000187671
-9.34737e-06
0.000188951
-9.38284e-06
0.000190232
-9.40736e-06
0.000191514
-9.42099e-06
0.000192794
-9.42378e-06
0.000194072
-9.41576e-06
0.000195346
-9.39697e-06
0.000196613
-9.36739e-06
0.000197873
-9.32701e-06
0.000199125
-9.27579e-06
0.000200366
-9.21366e-06
0.000201596
-9.14053e-06
0.000202812
-9.05628e-06
0.000204013
-8.96074e-06
0.000205199
-8.8537e-06
0.000206367
-8.73493e-06
0.000207515
-8.60411e-06
0.000208643
-8.46089e-06
0.000209749
-8.30483e-06
0.000210831
-8.13543e-06
0.000211888
-7.95211e-06
0.000212918
-7.75418e-06
0.00021392
-7.54086e-06
0.000214892
-7.31126e-06
0.000215832
-7.06435e-06
0.000216739
-6.79895e-06
0.000217612
-6.51373e-06
0.000218449
-6.20719e-06
0.000219249
-5.8776e-06
0.00022001
-5.52304e-06
0.000220732
-5.14136e-06
0.000221414
-4.73013e-06
0.000222055
-4.28666e-06
0.000222657
-3.80798e-06
0.000223219
-3.29085e-06
0.000223745
-2.73177e-06
0.000224238
-2.12703e-06
0.000224703
-1.4728e-06
0.000225147
-7.65178e-07
0.000225581
-5.27837e-10
0.000226019
8.24302e-07
0.000226477
1.71013e-06
0.000226979
2.65765e-06
0.000227552
3.66513e-06
0.00022823
4.7278e-06
0.00022905
5.83688e-06
0.000230053
6.97859e-06
0.000231278
8.13318e-06
0.000232761
9.27443e-06
0.000234522
1.03698e-05
0.000236559
1.1382e-05
1.22733e-05
0.000238838
0.000171298
-1.01594e-06
0.000171537
-1.99165e-06
0.000171882
-2.83536e-06
0.000172324
-3.58276e-06
0.000172852
-4.25161e-06
0.000173459
-4.85439e-06
0.000174137
-5.40105e-06
0.00017488
-5.89949e-06
0.000175682
-6.35597e-06
0.000176538
-6.77548e-06
0.000177444
-7.1621e-06
0.000178396
-7.51919e-06
0.00017939
-7.84953e-06
0.000180423
-8.15544e-06
0.000181491
-8.43887e-06
0.000182593
-8.70144e-06
0.000183726
-8.94453e-06
0.000184886
-9.16931e-06
0.000186071
-9.37676e-06
0.00018728
-9.56772e-06
0.000188511
-9.74288e-06
0.00018976
-9.90284e-06
0.000191026
-1.00481e-05
0.000192308
-1.01791e-05
0.000193603
-1.02961e-05
0.00019491
-1.03995e-05
0.000196226
-1.04896e-05
0.00019755
-1.05665e-05
0.00019888
-1.06304e-05
0.000200215
-1.06814e-05
0.000201553
-1.07197e-05
0.000202892
-1.07455e-05
0.000204231
-1.07587e-05
0.000205567
-1.07594e-05
0.0002069
-1.07478e-05
0.000208228
-1.07238e-05
0.000209549
-1.06874e-05
0.000210862
-1.06387e-05
0.000212164
-1.05776e-05
0.000213455
-1.05041e-05
0.000214734
-1.04181e-05
0.000215998
-1.03194e-05
0.000217246
-1.02079e-05
0.000218476
-1.00835e-05
0.000219688
-9.94588e-06
0.000220879
-9.79472e-06
0.000222049
-9.62971e-06
0.000223195
-9.45041e-06
0.000224317
-9.25635e-06
0.000225412
-9.04695e-06
0.00022648
-8.82155e-06
0.00022752
-8.57942e-06
0.000228529
-8.3197e-06
0.000229506
-8.04143e-06
0.000230451
-7.74351e-06
0.000231363
-7.42474e-06
0.00023224
-7.08377e-06
0.000233082
-6.71908e-06
0.000233889
-6.32903e-06
0.00023466
-5.91181e-06
0.000235395
-5.46545e-06
0.000236097
-4.98788e-06
0.000236766
-4.47686e-06
0.000237406
-3.93012e-06
0.00023802
-3.34535e-06
0.000238614
-2.72031e-06
0.000239194
-2.05294e-06
0.000239771
-1.34153e-06
0.000240356
-5.84807e-07
0.000240963
2.17875e-07
0.000241608
1.06489e-06
0.000242313
1.95303e-06
0.000243101
2.87762e-06
0.000243998
3.83154e-06
0.00024503
4.80472e-06
0.000246225
5.7839e-06
0.000247606
6.75249e-06
0.00024919
7.69085e-06
0.000250983
8.57712e-06
0.000252976
9.38881e-06
1.01056e-05
0.000255144
0.000183291
-1.13551e-06
0.000183538
-2.23792e-06
0.000183896
-3.19378e-06
0.000184356
-4.04196e-06
0.000184906
-4.802e-06
0.00018554
-5.48736e-06
0.000186248
-6.10898e-06
0.000187025
-6.67572e-06
0.000187864
-7.19459e-06
0.00018876
-7.67125e-06
0.000189709
-8.11032e-06
0.000190706
-8.51561e-06
0.000191747
-8.89029e-06
0.00019283
-9.23699e-06
0.000193949
-9.55794e-06
0.000195104
-9.85499e-06
0.00019629
-1.01297e-05
0.000197505
-1.03835e-05
0.000198746
-1.06174e-05
0.000200012
-1.08324e-05
0.000201299
-1.10294e-05
0.000202606
-1.12089e-05
0.000203931
-1.13716e-05
0.000205271
-1.1518e-05
0.000206624
-1.16484e-05
0.000207989
-1.17633e-05
0.000209363
-1.18629e-05
0.000210745
-1.19474e-05
0.000212133
-1.20171e-05
0.000213524
-1.20722e-05
0.000214918
-1.21128e-05
0.000216313
-1.2139e-05
0.000217706
-1.2151e-05
0.000219097
-1.21489e-05
0.000220483
-1.21327e-05
0.000221862
-1.21024e-05
0.000223234
-1.20582e-05
0.000224596
-1.2e-05
0.000225947
-1.19279e-05
0.000227286
-1.18418e-05
0.00022861
-1.17416e-05
0.000229919
-1.16273e-05
0.000231211
-1.14987e-05
0.000232484
-1.13557e-05
0.000233737
-1.1198e-05
0.000234968
-1.10254e-05
0.000236177
-1.08375e-05
0.000237361
-1.06341e-05
0.00023852
-1.04145e-05
0.000239652
-1.01784e-05
0.000240757
-9.92519e-06
0.000241832
-9.65411e-06
0.000242878
-9.36445e-06
0.000243892
-9.05537e-06
0.000244875
-8.72595e-06
0.000245826
-8.37517e-06
0.000246745
-8.00191e-06
0.000247631
-7.60498e-06
0.000248486
-7.1831e-06
0.00024931
-6.73494e-06
0.000250104
-6.25909e-06
0.000250871
-5.75417e-06
0.000251613
-5.2188e-06
0.000252335
-4.6517e-06
0.000253042
-4.05175e-06
0.00025374
-3.41812e-06
0.000254438
-2.75032e-06
0.000255145
-2.04844e-06
0.000255874
-1.31315e-06
0.000256638
-5.45796e-07
0.000257452
2.5112e-07
0.000258333
1.07279e-06
0.000259298
1.91257e-06
0.000260367
2.76296e-06
0.000261558
3.61448e-06
0.000262886
4.45592e-06
0.000264365
5.27448e-06
0.000265999
6.05631e-06
0.00026779
6.78719e-06
0.000269725
7.45377e-06
8.04523e-06
0.000271786
0.000196124
-1.25868e-06
0.000196378
-2.49215e-06
0.00019675
-3.56496e-06
0.000197227
-4.51848e-06
0.000197799
-5.37409e-06
0.000198458
-6.14616e-06
0.000199196
-6.8466e-06
0.000200006
-7.48515e-06
0.000200882
-8.06964e-06
0.000201817
-8.60638e-06
0.000202808
-9.10053e-06
0.00020385
-9.55638e-06
0.000204937
-9.97749e-06
0.000206068
-1.03668e-05
0.000207238
-1.0727e-05
0.000208444
-1.10599e-05
0.000209682
-1.13676e-05
0.000210951
-1.16513e-05
0.000212247
-1.19126e-05
0.000213568
-1.21524e-05
0.000214911
-1.23716e-05
0.000216274
-1.25711e-05
0.000217655
-1.27514e-05
0.000219051
-1.29133e-05
0.000220461
-1.3057e-05
0.000221882
-1.31831e-05
0.000223312
-1.32919e-05
0.00022475
-1.33837e-05
0.000226192
-1.34587e-05
0.000227638
-1.35172e-05
0.000229086
-1.35594e-05
0.000230533
-1.35853e-05
0.000231979
-1.35952e-05
0.00023342
-1.35891e-05
0.000234856
-1.35673e-05
0.000236284
-1.35297e-05
0.000237703
-1.34765e-05
0.000239112
-1.34077e-05
0.000240508
-1.33233e-05
0.000241891
-1.32233e-05
0.000243258
-1.31077e-05
0.000244608
-1.29765e-05
0.00024594
-1.28296e-05
0.000247252
-1.26668e-05
0.000248543
-1.2488e-05
0.000249811
-1.22929e-05
0.000251056
-1.20813e-05
0.000252276
-1.1853e-05
0.000253469
-1.16075e-05
0.000254636
-1.13443e-05
0.000255775
-1.10632e-05
0.000256885
-1.07634e-05
0.000257965
-1.04444e-05
0.000259016
-1.01056e-05
0.000260037
-9.74621e-06
0.000261028
-9.36551e-06
0.00026199
-8.9627e-06
0.000262922
-8.53696e-06
0.000263827
-8.08745e-06
0.000264706
-7.61338e-06
0.000265562
-7.11396e-06
0.000266397
-6.58853e-06
0.000267215
-6.03654e-06
0.000268021
-5.45767e-06
0.000268822
-4.85185e-06
0.000269624
-4.21941e-06
0.000270435
-3.56112e-06
0.000271265
-2.87835e-06
0.000272126
-2.17312e-06
0.000273029
-1.44815e-06
0.000273987
-7.06759e-07
0.000275013
4.68249e-08
0.00027612
8.06237e-07
0.00027732
1.5638e-06
0.000278623
2.31125e-06
0.00028004
3.03992e-06
0.000281574
3.74043e-06
0.000283227
4.40337e-06
0.000284995
5.01977e-06
0.000286867
5.58179e-06
6.08387e-06
0.000288829
0.000209855
-1.38544e-06
0.000210117
-2.7541e-06
0.000210501
-3.94845e-06
0.000210995
-5.01175e-06
0.000211588
-5.96714e-06
0.000212272
-6.82994e-06
0.000213039
-7.61293e-06
0.000213881
-8.32674e-06
0.000214792
-8.97999e-06
0.000215766
-9.57964e-06
0.000216797
-1.01314e-05
0.000217882
-1.06401e-05
0.000219015
-1.11097e-05
0.000220192
-1.15435e-05
0.00022141
-1.19443e-05
0.000222666
-1.23146e-05
0.000223955
-1.26562e-05
0.000225276
-1.29709e-05
0.000226625
-1.32602e-05
0.000227999
-1.35253e-05
0.000229395
-1.37673e-05
0.000230812
-1.39869e-05
0.000232247
-1.4185e-05
0.000233697
-1.43623e-05
0.00023516
-1.45192e-05
0.000236635
-1.46563e-05
0.000238118
-1.47739e-05
0.000239608
-1.48723e-05
0.000241102
-1.4952e-05
0.000242599
-1.50131e-05
0.000244097
-1.50559e-05
0.000245593
-1.50806e-05
0.000247087
-1.50874e-05
0.000248575
-1.50764e-05
0.000250056
-1.50478e-05
0.00025153
-1.50017e-05
0.000252992
-1.49382e-05
0.000254443
-1.48575e-05
0.000255881
-1.47595e-05
0.000257303
-1.46445e-05
0.000258708
-1.45123e-05
0.000260096
-1.4363e-05
0.000261464
-1.41965e-05
0.000262811
-1.40129e-05
0.000264136
-1.38119e-05
0.000265437
-1.35936e-05
0.000266714
-1.33576e-05
0.000267966
-1.31039e-05
0.000269192
-1.28321e-05
0.00027039
-1.2542e-05
0.000271561
-1.22332e-05
0.000272704
-1.19054e-05
0.000273818
-1.15581e-05
0.000274905
-1.11911e-05
0.000275963
-1.08037e-05
0.000276994
-1.03957e-05
0.000277998
-9.96645e-06
0.000278978
-9.51569e-06
0.000279934
-9.04303e-06
0.000280869
-8.54819e-06
0.000281787
-8.03103e-06
0.000282691
-7.49153e-06
0.000283585
-6.92992e-06
0.000284474
-6.34665e-06
0.000285365
-5.74252e-06
0.000286265
-5.11871e-06
0.000287181
-4.47685e-06
0.000288123
-3.8191e-06
0.000289098
-3.14818e-06
0.000290118
-2.46741e-06
0.000291192
-1.78066e-06
0.000292332
-1.09227e-06
0.000293545
-4.0668e-07
0.000294839
2.70194e-07
0.000296219
9.31569e-07
0.000297689
1.57042e-06
0.00029925
2.17983e-06
0.0003009
2.75377e-06
0.000302634
3.28663e-06
0.000304442
3.77389e-06
4.21286e-06
0.000306313
0.000224548
-1.5157e-06
0.000224817
-3.02344e-06
0.000225212
-4.34367e-06
0.000225722
-5.52095e-06
0.000226335
-6.58015e-06
0.000227043
-7.53751e-06
0.000227837
-8.40662e-06
0.00022871
-9.19899e-06
0.000229655
-9.92399e-06
0.000230665
-1.05893e-05
0.000231736
-1.12012e-05
0.000232861
-1.17649e-05
0.000234037
-1.22848e-05
0.000235259
-1.27647e-05
0.000236523
-1.32077e-05
0.000237826
-1.36164e-05
0.000239164
-1.3993e-05
0.000240534
-1.43395e-05
0.000241932
-1.46575e-05
0.000243356
-1.49484e-05
0.000244803
-1.52133e-05
0.000246271
-1.54532e-05
0.000247756
-1.5669e-05
0.000249256
-1.58615e-05
0.00025077
-1.60312e-05
0.000252293
-1.61788e-05
0.000253825
-1.63046e-05
0.000255363
-1.64091e-05
0.000256905
-1.64926e-05
0.000258449
-1.65554e-05
0.000259992
-1.65979e-05
0.000261533
-1.66203e-05
0.00026307
-1.66228e-05
0.0002646
-1.66057e-05
0.000266123
-1.65691e-05
0.000267635
-1.65132e-05
0.000269137
-1.64382e-05
0.000270625
-1.63443e-05
0.000272098
-1.62316e-05
0.000273555
-1.61001e-05
0.000274994
-1.59501e-05
0.000276413
-1.57815e-05
0.000277812
-1.55945e-05
0.00027919
-1.53891e-05
0.000280544
-1.51653e-05
0.000281874
-1.4923e-05
0.00028318
-1.46622e-05
0.00028446
-1.43828e-05
0.000285714
-1.40848e-05
0.000286941
-1.3768e-05
0.000288141
-1.34323e-05
0.000289314
-1.30774e-05
0.00029046
-1.27034e-05
0.000291579
-1.231e-05
0.000292674
-1.1897e-05
0.000293743
-1.14645e-05
0.00029479
-1.10123e-05
0.000295815
-1.05404e-05
0.000296822
-1.0049e-05
0.000297813
-9.53837e-06
0.000298791
-9.00879e-06
0.000299761
-8.4609e-06
0.000300728
-7.8955e-06
0.000301695
-7.31367e-06
0.00030267
-6.71679e-06
0.000303659
-6.1066e-06
0.000304667
-5.4852e-06
0.000305704
-4.85512e-06
0.000306776
-4.21931e-06
0.00030789
-3.58113e-06
0.000309054
-2.94432e-06
0.000310275
-2.31293e-06
0.00031156
-1.69118e-06
0.000312914
-1.0832e-06
0.000314339
-4.9313e-07
0.000315836
7.43913e-08
0.000317402
6.14421e-07
0.000319033
1.12262e-06
0.000320725
1.59534e-06
0.00032247
2.02978e-06
2.42503e-06
0.000324258
0.000240268
-1.64927e-06
0.000240545
-3.2997e-06
0.000240951
-4.74979e-06
0.000241475
-6.04499e-06
0.000242107
-7.21175e-06
0.000242838
-8.26725e-06
0.000243657
-9.22584e-06
0.000244559
-1.00999e-05
0.000245535
-1.08994e-05
0.000246579
-1.16329e-05
0.000247686
-1.23071e-05
0.00024885
-1.29279e-05
0.000250066
-1.34999e-05
0.000251329
-1.40275e-05
0.000252637
-1.45139e-05
0.000253983
-1.49621e-05
0.000255366
-1.53746e-05
0.000256781
-1.57535e-05
0.000258225
-1.61006e-05
0.000259695
-1.64174e-05
0.000261189
-1.67054e-05
0.000262702
-1.69655e-05
0.000264233
-1.71989e-05
0.000265779
-1.74062e-05
0.000267338
-1.75883e-05
0.000268906
-1.77456e-05
0.000270481
-1.78789e-05
0.000272062
-1.79886e-05
0.000273646
-1.8075e-05
0.00027523
-1.81386e-05
0.000276813
-1.81797e-05
0.000278393
-1.81986e-05
0.000279967
-1.81956e-05
0.000281534
-1.81711e-05
0.000283091
-1.81252e-05
0.000284637
-1.80582e-05
0.000286171
-1.79704e-05
0.00028769
-1.7862e-05
0.000289193
-1.77331e-05
0.000290678
-1.75841e-05
0.000292144
-1.74151e-05
0.00029359
-1.72263e-05
0.000295015
-1.70178e-05
0.000296416
-1.67899e-05
0.000297795
-1.65425e-05
0.000299149
-1.62758e-05
0.000300478
-1.599e-05