/*--------------------------------*- C++ -*----------------------------------*\
| =========                 |                                                 |
| \\      /  F ield         | OpenFOAM: The Open Source CFD Toolbox           |
|  \\    /   O peration     | Version:  2106                                  |
|   \\  /    A nd           | Website:  www.openfoam.com                      |
|    \\/     M anipulation  |                                                 |
\*---------------------------------------------------------------------------*/
FoamFile
{
    version     2.0;
    format      ascii;
    arch        "LSB;label=32;scalar=64";
    class       volScalarField;
    location    "4.2";
    object      T;
}
// * * * * * * * * * * * * * * * * * * * * * * * * * * * * * * * * * * * * * //

dimensions      [0 0 0 1 0 0 0];

internalField   nonuniform List<scalar> 
12013
(
300.003
300.009
300.015
300.021
300.028
300.034
300.042
300.049
300.057
300.065
300.074
300.083
300.092
300.102
300.112
300.123
300.134
300.146
300.158
300.171
300.184
300.198
300.212
300.227
300.242
300.258
300.275
300.292
300.31
300.328
300.347
300.367
300.388
300.409
300.431
300.453
300.476
300.5
300.525
300.551
300.577
300.604
300.633
300.661
300.691
300.722
300.753
300.786
300.819
300.853
300.889
300.925
300.963
301.001
301.041
301.081
301.123
301.166
301.211
301.257
301.304
301.352
301.402
301.454
301.507
301.562
301.62
301.679
301.74
301.803
301.87
301.939
302.011
302.087
302.168
302.253
302.344
302.443
302.552
302.676
302.824
300.003
300.009
300.015
300.021
300.028
300.034
300.042
300.049
300.057
300.065
300.074
300.083
300.092
300.102
300.112
300.123
300.134
300.146
300.158
300.171
300.184
300.198
300.212
300.227
300.242
300.258
300.275
300.292
300.31
300.328
300.347
300.367
300.388
300.409
300.431
300.453
300.476
300.5
300.525
300.551
300.577
300.604
300.632
300.661
300.691
300.722
300.753
300.786
300.819
300.853
300.889
300.925
300.962
301.001
301.04
301.081
301.123
301.166
301.21
301.256
301.303
301.352
301.402
301.453
301.507
301.562
301.619
301.677
301.739
301.802
301.868
301.937
302.009
302.084
302.164
302.248
302.338
302.435
302.539
302.655
302.781
300.003
300.009
300.015
300.021
300.028
300.034
300.042
300.049
300.057
300.065
300.074
300.083
300.092
300.102
300.112
300.123
300.134
300.146
300.158
300.171
300.184
300.198
300.212
300.227
300.242
300.258
300.275
300.292
300.31
300.328
300.347
300.367
300.387
300.409
300.43
300.453
300.476
300.5
300.525
300.551
300.577
300.604
300.632
300.661
300.691
300.721
300.753
300.785
300.819
300.853
300.888
300.925
300.962
301
301.04
301.08
301.122
301.165
301.21
301.255
301.302
301.351
301.4
301.452
301.505
301.56
301.616
301.675
301.736
301.799
301.864
301.932
302.004
302.078
302.156
302.238
302.325
302.417
302.515
302.619
302.727
300.003
300.009
300.015
300.021
300.027
300.034
300.042
300.049
300.057
300.065
300.074
300.083
300.092
300.102
300.112
300.123
300.134
300.146
300.158
300.171
300.184
300.198
300.212
300.227
300.242
300.258
300.275
300.292
300.31
300.328
300.347
300.367
300.387
300.408
300.43
300.453
300.476
300.5
300.525
300.55
300.577
300.604
300.632
300.661
300.69
300.721
300.752
300.785
300.818
300.852
300.888
300.924
300.961
300.999
301.039
301.079
301.121
301.164
301.208
301.254
301.301
301.349
301.398
301.45
301.502
301.557
301.613
301.671
301.731
301.794
301.858
301.925
301.995
302.068
302.144
302.223
302.306
302.392
302.483
302.575
302.669
300.003
300.009
300.015
300.021
300.027
300.034
300.042
300.049
300.057
300.065
300.074
300.083
300.092
300.102
300.112
300.123
300.134
300.146
300.158
300.171
300.184
300.198
300.212
300.227
300.242
300.258
300.275
300.292
300.309
300.328
300.347
300.367
300.387
300.408
300.43
300.453
300.476
300.5
300.525
300.55
300.576
300.604
300.631
300.66
300.69
300.72
300.752
300.784
300.817
300.852
300.887
300.923
300.96
300.998
301.038
301.078
301.12
301.162
301.206
301.251
301.298
301.346
301.395
301.446
301.498
301.552
301.608
301.665
301.725
301.786
301.849
301.915
301.983
302.054
302.127
302.202
302.281
302.361
302.444
302.527
302.61
300.003
300.009
300.015
300.021
300.027
300.034
300.042
300.049
300.057
300.065
300.074
300.083
300.092
300.102
300.112
300.123
300.134
300.146
300.158
300.171
300.184
300.197
300.212
300.226
300.242
300.258
300.274
300.292
300.309
300.328
300.347
300.366
300.387
300.408
300.43
300.452
300.475
300.499
300.524
300.55
300.576
300.603
300.631
300.66
300.689
300.72
300.751
300.783
300.816
300.85
300.885
300.921
300.958
300.997
301.036
301.076
301.117
301.16
301.203
301.248
301.295
301.342
301.391
301.441
301.493
301.546
301.601
301.658
301.716
301.776
301.838
301.902
301.967
302.035
302.105
302.177
302.25
302.325
302.401
302.476
302.551
300.003
300.009
300.015
300.021
300.027
300.034
300.042
300.049
300.057
300.065
300.074
300.083
300.092
300.102
300.112
300.123
300.134
300.146
300.158
300.17
300.184
300.197
300.212
300.226
300.242
300.258
300.274
300.291
300.309
300.327
300.346
300.366
300.387
300.408
300.429
300.452
300.475
300.499
300.524
300.549
300.575
300.602
300.63
300.659
300.688
300.719
300.75
300.782
300.815
300.849
300.884
300.92
300.956
300.994
301.033
301.073
301.114
301.156
301.2
301.244
301.29
301.337
301.385
301.435
301.486
301.538
301.592
301.648
301.705
301.763
301.823
301.885
301.948
302.013
302.079
302.147
302.215
302.285
302.354
302.423
302.49
300.003
300.009
300.015
300.021
300.027
300.034
300.041
300.049
300.057
300.065
300.074
300.083
300.092
300.102
300.112
300.123
300.134
300.146
300.158
300.17
300.183
300.197
300.211
300.226
300.241
300.257
300.274
300.291
300.309
300.327
300.346
300.366
300.386
300.407
300.429
300.451
300.474
300.498
300.523
300.548
300.574
300.601
300.629
300.658
300.687
300.717
300.748
300.78
300.813
300.847
300.882
300.917
300.954
300.991
301.03
301.07
301.11
301.152
301.195
301.239
301.284
301.331
301.378
301.427
301.477
301.529
301.581
301.635
301.691
301.747
301.805
301.865
301.925
301.987
302.05
302.113
302.177
302.241
302.305
302.368
302.43
300.003
300.009
300.015
300.021
300.027
300.034
300.041
300.049
300.057
300.065
300.074
300.083
300.092
300.102
300.112
300.123
300.134
300.145
300.158
300.17
300.183
300.197
300.211
300.226
300.241
300.257
300.274
300.291
300.308
300.327
300.346
300.365
300.386
300.407
300.428
300.451
300.474
300.497
300.522
300.547
300.573
300.6
300.628
300.656
300.685
300.715
300.746
300.778
300.811
300.844
300.879
300.914
300.951
300.988
301.026
301.065
301.106
301.147
301.189
301.233
301.277
301.323
301.37
301.417
301.466
301.517
301.568
301.62
301.674
301.729
301.784
301.841
301.899
301.957
302.016
302.076
302.135
302.195
302.254
302.312
302.369
300.003
300.009
300.015
300.021
300.027
300.034
300.041
300.049
300.057
300.065
300.074
300.083
300.092
300.102
300.112
300.123
300.134
300.145
300.157
300.17
300.183
300.197
300.211
300.226
300.241
300.257
300.273
300.29
300.308
300.326
300.345
300.365
300.385
300.406
300.427
300.45
300.473
300.496
300.521
300.546
300.572
300.599
300.626
300.654
300.683
300.713
300.744
300.776
300.808
300.841
300.875
300.911
300.946
300.983
301.021
301.06
301.1
301.14
301.182
301.225
301.269
301.313
301.359
301.406
301.454
301.502
301.552
301.603
301.655
301.707
301.76
301.814
301.869
301.924
301.98
302.035
302.091
302.146
302.201
302.254
302.307
300.003
300.009
300.015
300.021
300.027
300.034
300.041
300.049
300.057
300.065
300.073
300.082
300.092
300.102
300.112
300.122
300.133
300.145
300.157
300.17
300.183
300.196
300.211
300.225
300.24
300.256
300.273
300.29
300.307
300.326
300.344
300.364
300.384
300.405
300.426
300.449
300.471
300.495
300.519
300.544
300.57
300.597
300.624
300.652
300.681
300.711
300.741
300.772
300.805
300.838
300.871
300.906
300.942
300.978
301.015
301.054
301.093
301.133
301.174
301.216
301.258
301.302
301.347
301.392
301.439
301.486
301.534
301.583
301.632
301.682
301.733
301.785
301.836
301.888
301.94
301.992
302.044
302.095
302.146
302.196
302.245
300.003
300.009
300.015
300.021
300.027
300.034
300.041
300.049
300.057
300.065
300.073
300.082
300.092
300.101
300.112
300.122
300.133
300.145
300.157
300.169
300.182
300.196
300.21
300.225
300.24
300.256
300.272
300.289
300.307
300.325
300.343
300.363
300.383
300.404
300.425
300.447
300.47
300.493
300.518
300.542
300.568
300.594
300.622
300.649
300.678
300.707
300.738
300.769
300.8
300.833
300.866
300.901
300.936
300.972
301.008
301.046
301.084
301.124
301.164
301.205
301.246
301.289
301.332
301.376
301.421
301.467
301.513
301.56
301.607
301.655
301.703
301.752
301.801
301.85
301.898
301.947
301.995
302.043
302.09
302.136
302.182
300.003
300.009
300.015
300.021
300.027
300.034
300.041
300.049
300.056
300.065
300.073
300.082
300.091
300.101
300.111
300.122
300.133
300.144
300.156
300.169
300.182
300.196
300.21
300.224
300.239
300.255
300.271
300.288
300.306
300.324
300.342
300.362
300.382
300.402
300.424
300.446
300.468
300.491
300.515
300.54
300.566
300.592
300.619
300.646
300.675
300.704
300.733
300.764
300.795
300.828
300.861
300.894
300.929
300.964
301
301.037
301.074
301.113
301.152
301.192
301.232
301.274
301.315
301.358
301.401
301.445
301.489
301.534
301.579
301.625
301.671
301.716
301.762
301.808
301.854
301.899
301.944
301.989
302.033
302.076
302.118
300.003
300.009
300.014
300.021
300.027
300.034
300.041
300.049
300.056
300.064
300.073
300.082
300.091
300.101
300.111
300.122
300.133
300.144
300.156
300.169
300.181
300.195
300.209
300.223
300.239
300.254
300.27
300.287
300.305
300.323
300.341
300.36
300.38
300.401
300.422
300.444
300.466
300.489
300.513
300.537
300.563
300.589
300.615
300.642
300.67
300.699
300.729
300.759
300.79
300.821
300.854
300.887
300.921
300.955
300.99
301.026
301.063
301.1
301.138
301.177
301.216
301.256
301.297
301.338
301.379
301.421
301.463
301.506
301.549
301.592
301.635
301.678
301.722
301.765
301.807
301.85
301.892
301.933
301.974
302.015
302.054
300.003
300.008
300.014
300.021
300.027
300.034
300.041
300.048
300.056
300.064
300.073
300.082
300.091
300.101
300.111
300.121
300.132
300.144
300.156
300.168
300.181
300.194
300.208
300.223
300.238
300.253
300.269
300.286
300.303
300.321
300.34
300.359
300.378
300.399
300.42
300.441
300.464
300.486
300.51
300.534
300.559
300.585
300.611
300.638
300.666
300.694
300.723
300.752
300.783
300.814
300.846
300.878
300.911
300.945
300.979
301.014
301.05
301.086
301.123
301.16
301.198
301.237
301.275
301.315
301.354
301.394
301.435
301.475
301.516
301.557
301.597
301.638
301.679
301.719
301.759
301.799
301.838
301.877
301.915
301.952
301.989
300.003
300.008
300.014
300.021
300.027
300.034
300.041
300.048
300.056
300.064
300.073
300.081
300.091
300.1
300.11
300.121
300.132
300.143
300.155
300.167
300.18
300.193
300.207
300.222
300.237
300.252
300.268
300.285
300.302
300.32
300.338
300.357
300.376
300.396
300.417
300.439
300.461
300.483
300.507
300.53
300.555
300.58
300.606
300.633
300.66
300.688
300.716
300.745
300.775
300.805
300.836
300.868
300.9
300.933
300.966
301
301.035
301.07
301.106
301.142
301.178
301.215
301.252
301.29
301.327
301.365
301.404
301.442
301.48
301.519
301.557
301.595
301.633
301.671
301.709
301.746
301.782
301.819
301.854
301.889
301.924
300.003
300.008
300.014
300.021
300.027
300.034
300.041
300.048
300.056
300.064
300.072
300.081
300.09
300.1
300.11
300.12
300.131
300.142
300.154
300.167
300.179
300.193
300.206
300.221
300.235
300.251
300.267
300.283
300.3
300.318
300.336
300.355
300.374
300.394
300.414
300.435
300.457
300.48
300.502
300.526
300.55
300.575
300.6
300.627
300.653
300.68
300.708
300.737
300.766
300.796
300.826
300.857
300.888
300.92
300.952
300.985
301.018
301.052
301.086
301.121
301.156
301.191
301.227
301.262
301.298
301.334
301.37
301.407
301.443
301.479
301.515
301.551
301.587
301.622
301.657
301.692
301.726
301.76
301.793
301.826
301.858
300.003
300.008
300.014
300.02
300.027
300.034
300.041
300.048
300.056
300.064
300.072
300.081
300.09
300.099
300.109
300.12
300.13
300.142
300.153
300.166
300.178
300.191
300.205
300.219
300.234
300.249
300.265
300.281
300.298
300.315
300.333
300.352
300.371
300.391
300.411
300.432
300.453
300.475
300.498
300.521
300.545
300.569
300.594
300.62
300.646
300.672
300.699
300.727
300.756
300.784
300.814
300.844
300.874
300.905
300.936
300.968
301
301.032
301.065
301.098
301.131
301.165
301.199
301.233
301.267
301.301
301.335
301.369
301.403
301.437
301.471
301.505
301.538
301.571
301.604
301.636
301.668
301.7
301.731
301.761
301.791
300.003
300.008
300.014
300.02
300.027
300.033
300.04
300.048
300.055
300.063
300.072
300.08
300.089
300.099
300.109
300.119
300.13
300.141
300.152
300.165
300.177
300.19
300.204
300.218
300.232
300.247
300.263
300.279
300.296
300.313
300.331
300.349
300.368
300.387
300.407
300.427
300.449
300.47
300.492
300.515
300.538
300.562
300.587
300.612
300.637
300.663
300.689
300.716
300.744
300.772
300.8
300.829
300.858
300.888
300.918
300.949
300.979
301.01
301.042
301.073
301.105
301.137
301.169
301.201
301.233
301.265
301.298
301.33
301.362
301.394
301.425
301.457
301.488
301.519
301.549
301.58
301.609
301.639
301.668
301.696
301.724
300.003
300.008
300.014
300.02
300.027
300.033
300.04
300.047
300.055
300.063
300.071
300.08
300.089
300.098
300.108
300.118
300.129
300.14
300.151
300.163
300.176
300.189
300.202
300.216
300.23
300.245
300.261
300.276
300.293
300.31
300.327
300.345
300.364
300.383
300.402
300.423
300.443
300.464
300.486
300.508
300.531
300.554
300.578
300.602
300.627
300.652
300.678
300.704
300.731
300.758
300.785
300.813
300.841
300.87
300.899
300.928
300.957
300.987
301.016
301.046
301.077
301.107
301.137
301.167
301.198
301.228
301.258
301.289
301.319
301.348
301.378
301.407
301.437
301.465
301.494
301.522
301.55
301.577
301.604
301.631
301.657
300.003
300.008
300.014
300.02
300.026
300.033
300.04
300.047
300.054
300.062
300.071
300.079
300.088
300.097
300.107
300.117
300.128
300.139
300.15
300.162
300.174
300.187
300.2
300.214
300.228
300.243
300.258
300.274
300.29
300.306
300.324
300.341
300.359
300.378
300.397
300.417
300.437
300.458
300.479
300.501
300.523
300.546
300.569
300.592
300.616
300.641
300.666
300.691
300.716
300.742
300.769
300.796
300.823
300.85
300.877
300.905
300.933
300.961
300.989
301.018
301.046
301.075
301.103
301.132
301.161
301.189
301.217
301.246
301.274
301.302
301.329
301.357
301.384
301.411
301.438
301.464
301.49
301.515
301.541
301.565
301.59
300.003
300.008
300.014
300.02
300.026
300.033
300.039
300.047
300.054
300.062
300.07
300.078
300.087
300.096
300.106
300.116
300.126
300.137
300.149
300.16
300.172
300.185
300.198
300.211
300.225
300.24
300.255
300.27
300.286
300.302
300.319
300.337
300.354
300.373
300.391
300.411
300.43
300.451
300.471
300.492
300.514
300.536
300.558
300.581
300.604
300.628
300.652
300.676
300.701
300.726
300.751
300.776
300.802
300.828
300.854
300.881
300.907
300.934
300.961
300.987
301.014
301.041
301.068
301.095
301.122
301.148
301.175
301.201
301.228
301.254
301.28
301.305
301.331
301.356
301.381
301.405
301.429
301.453
301.476
301.5
301.522
300.003
300.008
300.014
300.02
300.026
300.032
300.039
300.046
300.053
300.061
300.069
300.078
300.086
300.095
300.105
300.115
300.125
300.136
300.147
300.158
300.17
300.183
300.195
300.209
300.222
300.237
300.251
300.266
300.282
300.298
300.314
300.331
300.349
300.367
300.385
300.404
300.423
300.442
300.462
300.483
300.504
300.525
300.546
300.568
300.591
300.613
300.636
300.66
300.683
300.707
300.731
300.756
300.78
300.805
300.83
300.855
300.88
300.905
300.93
300.955
300.981
301.006
301.031
301.056
301.081
301.106
301.131
301.156
301.18
301.205
301.229
301.253
301.276
301.3
301.323
301.346
301.368
301.39
301.412
301.434
301.455
300.003
300.008
300.014
300.019
300.026
300.032
300.039
300.046
300.053
300.06
300.068
300.077
300.085
300.094
300.104
300.113
300.123
300.134
300.145
300.156
300.168
300.18
300.193
300.206
300.219
300.233
300.247
300.262
300.277
300.293
300.309
300.325
300.342
300.36
300.377
300.396
300.414
300.433
300.453
300.472
300.492
300.513
300.534
300.555
300.576
300.598
300.62
300.642
300.665
300.687
300.71
300.733
300.756
300.78
300.803
300.827
300.851
300.874
300.898
300.922
300.946
300.969
300.993
301.016
301.04
301.063
301.086
301.109
301.132
301.155
301.177
301.2
301.222
301.243
301.265
301.286
301.307
301.327
301.348
301.368
301.387
300.003
300.008
300.013
300.019
300.025
300.032
300.038
300.045
300.052
300.06
300.067
300.076
300.084
300.093
300.102
300.112
300.122
300.132
300.143
300.154
300.165
300.177
300.189
300.202
300.215
300.229
300.243
300.257
300.272
300.287
300.303
300.319
300.335
300.352
300.369
300.387
300.405
300.423
300.442
300.461
300.48
300.5
300.52
300.54
300.56
300.581
300.602
300.623
300.644
300.666
300.688
300.71
300.731
300.754
300.776
300.798
300.82
300.842
300.865
300.887
300.909
300.931
300.953
300.975
300.997
301.019
301.041
301.062
301.083
301.104
301.125
301.146
301.166
301.186
301.206
301.226
301.245
301.265
301.283
301.302
301.32
300.003
300.008
300.013
300.019
300.025
300.031
300.038
300.044
300.051
300.059
300.066
300.074
300.083
300.091
300.1
300.11
300.12
300.13
300.14
300.151
300.162
300.174
300.186
300.198
300.211
300.224
300.238
300.252
300.266
300.281
300.296
300.312
300.327
300.344
300.36
300.377
300.394
300.412
300.43
300.448
300.467
300.485
300.504
300.524
300.543
300.563
300.583
300.603
300.623
300.643
300.664
300.684
300.705
300.726
300.747
300.768
300.789
300.809
300.83
300.851
300.872
300.892
300.913
300.933
300.954
300.974
300.994
301.014
301.034
301.053
301.073
301.092
301.111
301.129
301.148
301.166
301.184
301.202
301.219
301.237
301.254
300.003
300.008
300.013
300.019
300.024
300.031
300.037
300.044
300.05
300.058
300.065
300.073
300.081
300.09
300.099
300.108
300.117
300.127
300.137
300.148
300.159
300.17
300.182
300.194
300.206
300.219
300.232
300.246
300.26
300.274
300.289
300.304
300.319
300.335
300.35
300.367
300.383
300.4
300.417
300.435
300.452
300.47
300.488
300.506
300.525
300.544
300.562
300.581
300.6
300.62
300.639
300.658
300.678
300.697
300.717
300.736
300.756
300.775
300.795
300.814
300.833
300.853
300.872
300.891
300.91
300.928
300.947
300.966
300.984
301.002
301.02
301.038
301.055
301.072
301.09
301.106
301.123
301.14
301.156
301.172
301.188
300.002
300.008
300.013
300.018
300.024
300.03
300.036
300.043
300.049
300.057
300.064
300.072
300.08
300.088
300.096
300.105
300.115
300.124
300.134
300.145
300.155
300.166
300.178
300.189
300.201
300.214
300.226
300.239
300.253
300.267
300.281
300.295
300.31
300.325
300.34
300.355
300.371
300.387
300.403
300.42
300.437
300.454
300.471
300.488
300.506
300.523
300.541
300.559
300.577
300.595
300.613
300.631
300.649
300.667
300.686
300.704
300.722
300.74
300.758
300.776
300.794
300.812
300.83
300.848
300.865
300.883
300.9
300.917
300.934
300.951
300.967
300.984
301
301.016
301.032
301.047
301.063
301.078
301.093
301.108
301.122
300.002
300.007
300.012
300.018
300.023
300.029
300.035
300.042
300.048
300.055
300.062
300.07
300.078
300.086
300.094
300.103
300.112
300.121
300.131
300.141
300.151
300.162
300.173
300.184
300.196
300.208
300.22
300.232
300.245
300.258
300.272
300.286
300.3
300.314
300.328
300.343
300.358
300.374
300.389
300.405
300.42
300.436
300.453
300.469
300.485
300.502
300.519
300.535
300.552
300.569
300.586
300.603
300.62
300.637
300.654
300.671
300.688
300.705
300.722
300.738
300.755
300.771
300.788
300.804
300.82
300.837
300.852
300.868
300.884
300.899
300.915
300.93
300.945
300.96
300.974
300.989
301.003
301.017
301.031
301.044
301.058
300.002
300.007
300.012
300.017
300.023
300.029
300.035
300.041
300.047
300.054
300.061
300.068
300.076
300.084
300.092
300.1
300.109
300.118
300.127
300.137
300.147
300.157
300.168
300.179
300.19
300.201
300.213
300.225
300.237
300.25
300.263
300.276
300.289
300.303
300.316
300.33
300.345
300.359
300.374
300.389
300.403
300.419
300.434
300.449
300.464
300.48
300.496
300.511
300.527
300.543
300.559
300.574
300.59
300.606
300.622
300.638
300.653
300.669
300.684
300.7
300.715
300.731
300.746
300.761
300.776
300.791
300.805
300.82
300.834
300.849
300.863
300.877
300.891
300.904
300.918
300.931
300.944
300.957
300.97
300.982
300.995
300.002
300.007
300.012
300.017
300.022
300.028
300.034
300.04
300.046
300.052
300.059
300.066
300.074
300.081
300.089
300.097
300.106
300.114
300.123
300.133
300.142
300.152
300.162
300.173
300.183
300.194
300.205
300.217
300.229
300.241
300.253
300.265
300.278
300.291
300.304
300.317
300.331
300.344
300.358
300.372
300.386
300.4
300.414
300.429
300.443
300.458
300.472
300.487
300.501
300.516
300.531
300.545
300.56
300.575
300.589
300.604
300.618
300.633
300.647
300.662
300.676
300.69
300.704
300.718
300.732
300.745
300.759
300.772
300.786
300.799
300.812
300.825
300.837
300.85
300.862
300.874
300.886
300.898
300.91
300.922
300.933
300.002
300.007
300.012
300.016
300.022
300.027
300.033
300.038
300.044
300.051
300.057
300.064
300.071
300.079
300.086
300.094
300.102
300.11
300.119
300.128
300.137
300.147
300.156
300.166
300.176
300.187
300.198
300.209
300.22
300.231
300.243
300.254
300.266
300.278
300.291
300.303
300.316
300.329
300.342
300.355
300.368
300.381
300.394
300.408
300.421
300.435
300.448
300.462
300.475
300.489
300.503
300.516
300.53
300.543
300.557
300.57
300.584
300.597
300.61
300.624
300.637
300.65
300.663
300.676
300.688
300.701
300.713
300.726
300.738
300.75
300.762
300.774
300.785
300.797
300.808
300.819
300.83
300.841
300.852
300.863
300.873
300.002
300.007
300.011
300.016
300.021
300.026
300.032
300.037
300.043
300.049
300.055
300.062
300.069
300.076
300.083
300.091
300.098
300.106
300.115
300.123
300.132
300.141
300.15
300.16
300.169
300.179
300.19
300.2
300.21
300.221
300.232
300.243
300.254
300.266
300.277
300.289
300.301
300.313
300.325
300.337
300.35
300.362
300.374
300.387
300.399
300.412
300.424
300.437
300.45
300.462
300.475
300.488
300.5
300.513
300.525
300.537
300.55
300.562
300.574
300.587
300.599
300.611
300.622
300.634
300.646
300.657
300.669
300.68
300.691
300.702
300.713
300.724
300.735
300.746
300.756
300.766
300.776
300.786
300.796
300.806
300.816
300.002
300.006
300.011
300.015
300.02
300.025
300.03
300.036
300.041
300.047
300.053
300.06
300.066
300.073
300.08
300.087
300.095
300.102
300.11
300.118
300.127
300.135
300.144
300.153
300.162
300.172
300.181
300.191
300.201
300.211
300.221
300.232
300.242
300.253
300.264
300.275
300.286
300.297
300.309
300.32
300.331
300.343
300.354
300.366
300.378
300.389
300.401
300.413
300.424
300.436
300.448
300.459
300.471
300.482
300.494
300.505
300.517
300.528
300.539
300.551
300.562
300.573
300.584
300.594
300.605
300.616
300.626
300.637
300.647
300.657
300.667
300.677
300.687
300.696
300.706
300.715
300.725
300.734
300.743
300.752
300.761
300.002
300.006
300.01
300.015
300.019
300.024
300.029
300.035
300.04
300.046
300.051
300.057
300.064
300.07
300.077
300.084
300.091
300.098
300.106
300.113
300.121
300.13
300.138
300.146
300.155
300.164
300.173
300.182
300.192
300.201
300.211
300.221
300.231
300.241
300.251
300.261
300.272
300.282
300.292
300.303
300.314
300.324
300.335
300.346
300.357
300.368
300.378
300.389
300.4
300.411
300.421
300.432
300.443
300.454
300.464
300.475
300.485
300.496
300.506
300.516
300.526
300.536
300.547
300.556
300.566
300.576
300.586
300.595
300.605
300.614
300.623
300.632
300.641
300.65
300.659
300.667
300.676
300.684
300.693
300.701
300.709
300.002
300.006
300.01
300.014
300.019
300.023
300.028
300.033
300.038
300.044
300.049
300.055
300.061
300.067
300.074
300.08
300.087
300.094
300.101
300.109
300.116
300.124
300.132
300.14
300.148
300.157
300.165
300.174
300.183
300.192
300.201
300.21
300.219
300.229
300.238
300.248
300.257
300.267
300.277
300.287
300.297
300.307
300.317
300.327
300.337
300.347
300.357
300.367
300.377
300.387
300.397
300.407
300.417
300.426
300.436
300.446
300.456
300.465
300.475
300.484
300.493
300.503
300.512
300.521
300.53
300.539
300.548
300.557
300.565
300.574
300.582
300.591
300.599
300.607
300.615
300.623
300.631
300.639
300.646
300.654
300.661
300.002
300.006
300.01
300.014
300.018
300.022
300.027
300.032
300.037
300.042
300.047
300.053
300.059
300.065
300.071
300.077
300.084
300.09
300.097
300.104
300.111
300.119
300.126
300.134
300.142
300.149
300.158
300.166
300.174
300.183
300.191
300.2
300.209
300.217
300.226
300.235
300.244
300.254
300.263
300.272
300.281
300.29
300.3
300.309
300.318
300.328
300.337
300.346
300.356
300.365
300.374
300.383
300.392
300.401
300.411
300.42
300.428
300.437
300.446
300.455
300.464
300.472
300.481
300.489
300.497
300.506
300.514
300.522
300.53
300.538
300.545
300.553
300.561
300.568
300.576
300.583
300.59
300.597
300.604
300.611
300.618
300.002
300.005
300.009
300.013
300.017
300.022
300.026
300.031
300.036
300.041
300.046
300.051
300.057
300.062
300.068
300.074
300.08
300.087
300.093
300.1
300.107
300.114
300.121
300.128
300.136
300.143
300.151
300.159
300.166
300.174
300.183
300.191
300.199
300.207
300.216
300.224
300.233
300.241
300.25
300.259
300.267
300.276
300.285
300.293
300.302
300.311
300.32
300.328
300.337
300.346
300.354
300.363
300.371
300.38
300.388
300.396
300.405
300.413
300.421
300.429
300.437
300.445
300.453
300.461
300.469
300.476
300.484
300.491
300.499
300.506
300.513
300.521
300.528
300.535
300.541
300.548
300.555
300.561
300.568
300.574
300.581
300.002
300.005
300.009
300.013
300.017
300.021
300.025
300.03
300.034
300.039
300.044
300.049
300.055
300.06
300.066
300.072
300.078
300.084
300.09
300.096
300.103
300.11
300.116
300.123
300.131
300.138
300.145
300.152
300.16
300.168
300.175
300.183
300.191
300.199
300.207
300.215
300.223
300.231
300.239
300.248
300.256
300.264
300.272
300.28
300.289
300.297
300.305
300.313
300.321
300.33
300.338
300.346
300.354
300.362
300.37
300.377
300.385
300.393
300.401
300.408
300.416
300.423
300.431
300.438
300.445
300.453
300.46
300.467
300.474
300.48
300.487
300.494
300.5
300.507
300.513
300.52
300.526
300.532
300.538
300.544
300.55
300.002
300.005
300.009
300.013
300.016
300.02
300.025
300.029
300.034
300.038
300.043
300.048
300.053
300.059
300.064
300.07
300.076
300.081
300.088
300.094
300.1
300.107
300.113
300.12
300.127
300.134
300.141
300.148
300.155
300.163
300.17
300.178
300.185
300.193
300.2
300.208
300.216
300.224
300.232
300.239
300.247
300.255
300.263
300.271
300.279
300.287
300.294
300.302
300.31
300.318
300.326
300.333
300.341
300.349
300.356
300.364
300.371
300.378
300.386
300.393
300.4
300.407
300.414
300.421
300.428
300.435
300.442
300.449
300.455
300.462
300.468
300.474
300.481
300.487
300.493
300.499
300.505
300.511
300.517
300.522
300.528
300.002
300.005
300.009
300.012
300.016
300.02
300.024
300.029
300.033
300.038
300.043
300.047
300.053
300.058
300.063
300.069
300.074
300.08
300.086
300.092
300.099
300.105
300.111
300.118
300.125
300.132
300.138
300.145
300.153
300.16
300.167
300.174
300.182
300.189
300.197
300.204
300.212
300.22
300.227
300.235
300.243
300.25
300.258
300.266
300.273
300.281
300.289
300.296
300.304
300.311
300.319
300.326
300.334
300.341
300.349
300.356
300.363
300.37
300.378
300.385
300.392
300.399
300.405
300.412
300.419
300.426
300.432
300.439
300.445
300.451
300.458
300.464
300.47
300.476
300.482
300.488
300.493
300.499
300.505
300.51
300.516
303.019
303.148
303.225
303.298
303.361
303.413
303.448
303.488
303.527
303.564
303.596
303.63
303.665
303.699
303.732
303.765
303.796
303.824
303.853
303.883
303.912
303.941
303.971
303.999
304.028
304.057
304.084
304.112
304.139
304.166
304.193
304.219
304.245
304.271
304.296
304.321
304.346
304.371
304.395
304.42
304.444
304.467
304.492
304.518
304.544
304.568
304.59
304.615
304.64
304.664
304.687
304.709
304.732
304.755
304.779
304.803
304.827
304.851
304.875
304.897
304.916
304.937
304.959
304.981
305.003
305.026
305.047
305.069
305.091
305.112
305.133
305.154
305.174
305.194
305.214
305.234
305.253
305.272
305.29
305.311
305.333
305.354
305.372
305.39
305.406
305.422
305.44
305.461
305.479
305.495
305.509
305.526
305.544
305.56
305.577
305.595
305.611
305.625
305.641
305.656
305.669
305.684
305.696
305.71
305.724
305.74
305.753
305.763
305.775
305.785
305.797
305.809
305.821
305.834
305.844
305.852
305.861
305.871
305.881
305.889
305.895
305.902
305.91
305.916
305.922
305.926
305.93
305.934
305.937
305.94
305.941
305.941
305.941
305.939
305.936
305.932
305.927
305.92
305.912
305.902
305.891
305.878
305.864
305.847
305.828
305.808
305.785
305.759
305.729
305.696
305.654
305.612
305.57
305.523
305.469
305.408
305.342
305.231
305.129
305
304.831
302.918
303.032
303.12
303.195
303.26
303.316
303.362
303.406
303.447
303.487
303.523
303.559
303.595
303.63
303.665
303.698
303.73
303.76
303.791
303.821
303.851
303.881
303.911
303.94
303.969
303.998
304.026
304.055
304.082
304.11
304.137
304.164
304.19
304.216
304.242
304.268
304.293
304.318
304.343
304.368
304.392
304.417
304.442
304.467
304.493
304.517
304.541
304.565
304.59
304.614
304.638
304.66
304.684
304.707
304.731
304.755
304.78
304.803
304.827
304.849
304.87
304.891
304.913
304.935
304.958
304.98
305.002
305.024
305.046
305.067
305.088
305.109
305.129
305.15
305.17
305.19
305.209
305.229
305.248
305.268
305.29
305.31
305.329
305.347
305.364
305.381
305.399
305.419
305.437
305.453
305.469
305.486
305.503
305.52
305.536
305.554
305.57
305.585
305.601
305.616
305.63
305.644
305.657
305.671
305.685
305.7
305.713
305.725
305.737
305.747
305.759
305.771
305.783
305.795
305.806
305.814
305.824
305.834
305.843
305.852
305.858
305.865
305.873
305.879
305.885
305.889
305.894
305.897
305.901
305.903
305.904
305.905
305.904
305.903
305.9
305.896
305.89
305.884
305.875
305.866
305.855
305.842
305.827
305.811
305.792
305.771
305.748
305.722
305.692
305.658
305.617
305.575
305.532
305.483
305.428
305.366
305.295
305.187
305.079
304.944
304.76
302.836
302.935
303.021
303.097
303.163
303.221
303.273
303.32
303.365
303.406
303.446
303.484
303.521
303.558
303.593
303.628
303.661
303.693
303.724
303.756
303.786
303.817
303.847
303.877
303.907
303.936
303.965
303.994
304.022
304.05
304.077
304.105
304.131
304.158
304.184
304.211
304.236
304.262
304.287
304.313
304.338
304.362
304.388
304.413
304.439
304.463
304.488