/*--------------------------------*- C++ -*----------------------------------*\
| =========                 |                                                 |
| \\      /  F ield         | OpenFOAM: The Open Source CFD Toolbox           |
|  \\    /   O peration     | Version:  2106                                  |
|   \\  /    A nd           | Website:  www.openfoam.com                      |
|    \\/     M anipulation  |                                                 |
\*---------------------------------------------------------------------------*/
FoamFile
{
    version     2.0;
    format      ascii;
    arch        "LSB;label=32;scalar=64";
    class       volVectorField;
    location    "4.2";
    object      U;
}
// * * * * * * * * * * * * * * * * * * * * * * * * * * * * * * * * * * * * * //

dimensions      [0 1 -1 0 0 0 0];

internalField   nonuniform List<vector> 
12013
(
(0.100031 -8.76464e-06 0)
(0.10016 -1.6205e-05 0)
(0.100368 -2.30906e-05 0)
(0.100637 -2.94252e-05 0)
(0.100962 -3.53671e-05 0)
(0.101336 -4.10063e-05 0)
(0.101756 -4.64007e-05 0)
(0.102216 -5.15971e-05 0)
(0.102715 -5.66309e-05 0)
(0.103248 -6.15296e-05 0)
(0.103814 -6.6316e-05 0)
(0.104409 -7.10071e-05 0)
(0.105031 -7.56174e-05 0)
(0.10568 -8.01587e-05 0)
(0.106352 -8.46401e-05 0)
(0.107047 -8.90685e-05 0)
(0.107762 -9.34497e-05 0)
(0.108497 -9.77875e-05 0)
(0.10925 -0.000102085 0)
(0.110019 -0.000106343 0)
(0.110804 -0.000110563 0)
(0.111603 -0.000114744 0)
(0.112415 -0.000118885 0)
(0.11324 -0.000122983 0)
(0.114075 -0.000127036 0)
(0.11492 -0.00013104 0)
(0.115774 -0.000134992 0)
(0.116636 -0.000138886 0)
(0.117505 -0.000142716 0)
(0.11838 -0.000146478 0)
(0.11926 -0.000150163 0)
(0.120143 -0.000153766 0)
(0.12103 -0.000157278 0)
(0.121918 -0.000160691 0)
(0.122808 -0.000163995 0)
(0.123698 -0.000167182 0)
(0.124587 -0.00017024 0)
(0.125473 -0.000173158 0)
(0.126357 -0.000175922 0)
(0.127238 -0.00017852 0)
(0.128113 -0.000180935 0)
(0.128982 -0.00018315 0)
(0.129845 -0.000185148 0)
(0.130699 -0.000186905 0)
(0.131545 -0.0001884 0)
(0.13238 -0.000189605 0)
(0.133203 -0.000190489 0)
(0.134014 -0.000191018 0)
(0.134812 -0.000191155 0)
(0.135593 -0.000190852 0)
(0.136358 -0.00019006 0)
(0.137105 -0.000188719 0)
(0.137831 -0.000186759 0)
(0.138535 -0.000184101 0)
(0.139215 -0.000180651 0)
(0.139869 -0.000176298 0)
(0.140494 -0.000170911 0)
(0.141088 -0.000164331 0)
(0.141646 -0.000156372 0)
(0.142166 -0.000146805 0)
(0.142643 -0.00013535 0)
(0.143073 -0.000121664 0)
(0.14345 -0.000105317 0)
(0.143767 -8.57709e-05 0)
(0.144016 -6.23364e-05 0)
(0.144187 -3.41219e-05 0)
(0.144269 5.04986e-08 0)
(0.144246 4.16698e-05 0)
(0.144102 9.29794e-05 0)
(0.14381 0.00015699 0)
(0.143341 0.00023801 0)
(0.142652 0.000342376 0)
(0.141687 0.000479682 0)
(0.140363 0.000664904 0)
(0.138563 0.000922211 0)
(0.136113 0.00129192 0)
(0.132742 0.00184364 0)
(0.128004 0.00270479 0)
(0.12116 0.00414754 0)
(0.111213 0.00696364 0)
(0.0998172 0.0148349 0)
(0.100029 -2.67641e-05 0)
(0.100157 -4.96866e-05 0)
(0.100365 -7.08337e-05 0)
(0.100633 -9.02755e-05 0)
(0.100957 -0.000108512 0)
(0.10133 -0.000125817 0)
(0.101749 -0.00014237 0)
(0.102209 -0.000158314 0)
(0.102706 -0.000173758 0)
(0.103239 -0.000188787 0)
(0.103803 -0.000203469 0)
(0.104397 -0.000217859 0)
(0.105019 -0.000232 0)
(0.105667 -0.000245929 0)
(0.106338 -0.000259673 0)
(0.107032 -0.000273253 0)
(0.107746 -0.000286688 0)
(0.108479 -0.000299989 0)
(0.109231 -0.000313165 0)
(0.109999 -0.00032622 0)
(0.110782 -0.000339157 0)
(0.11158 -0.000351973 0)
(0.112391 -0.000364666 0)
(0.113214 -0.000377227 0)
(0.114047 -0.000389649 0)
(0.114891 -0.000401921 0)
(0.115743 -0.00041403 0)
(0.116604 -0.000425961 0)
(0.117471 -0.000437697 0)
(0.118344 -0.00044922 0)
(0.119222 -0.000460509 0)
(0.120103 -0.000471544 0)
(0.120988 -0.0004823 0)
(0.121874 -0.000492751 0)
(0.122762 -0.000502869 0)
(0.123649 -0.000512625 0)
(0.124536 -0.000521985 0)
(0.12542 -0.000530914 0)
(0.126302 -0.000539374 0)
(0.12718 -0.00054732 0)
(0.128052 -0.000554707 0)
(0.128919 -0.000561481 0)
(0.129779 -0.000567585 0)
(0.130631 -0.000572955 0)
(0.131474 -0.000577517 0)
(0.132306 -0.00058119 0)
(0.133127 -0.000583882 0)
(0.133935 -0.000585488 0)
(0.134729 -0.000585887 0)
(0.135508 -0.000584945 0)
(0.13627 -0.000582502 0)
(0.137014 -0.00057838 0)
(0.137737 -0.000572366 0)
(0.138439 -0.000564217 0)
(0.139116 -0.000553647 0)
(0.139768 -0.000540317 0)
(0.14039 -0.000523829 0)
(0.140981 -0.000503705 0)
(0.141538 -0.000479373 0)
(0.142057 -0.00045014 0)
(0.142533 -0.000415161 0)
(0.142963 -0.000373396 0)
(0.14334 -0.000323551 0)
(0.143658 -0.000263999 0)
(0.14391 -0.000192674 0)
(0.144087 -0.000106915 0)
(0.144177 -3.24143e-06 0)
(0.144167 0.000122903 0)
(0.14404 0.000277921 0)
(0.143775 0.000470572 0)
(0.143344 0.00071323 0)
(0.142712 0.00102383 0)
(0.141831 0.00142898 0)
(0.14064 0.00196926 0)
(0.139053 0.00270805 0)
(0.136955 0.00374655 0)
(0.134192 0.00524846 0)
(0.130552 0.0074801 0)
(0.125779 0.010876 0)
(0.119894 0.0160568 0)
(0.115005 0.0232732 0)
(0.100027 -4.55014e-05 0)
(0.100153 -8.52336e-05 0)
(0.100359 -0.000121655 0)
(0.100625 -0.000155128 0)
(0.100947 -0.000186519 0)
(0.101319 -0.0002163 0)
(0.101736 -0.000244782 0)
(0.102195 -0.000272213 0)
(0.10269 -0.000298781 0)
(0.103221 -0.000324632 0)
(0.103784 -0.000349885 0)
(0.104376 -0.000374632 0)
(0.104996 -0.00039895 0)
(0.105641 -0.000422899 0)
(0.10631 -0.000446529 0)
(0.107001 -0.000469876 0)
(0.107713 -0.00049297 0)
(0.108444 -0.000515832 0)
(0.109193 -0.000538476 0)
(0.109959 -0.000560911 0)
(0.110739 -0.00058314 0)
(0.111534 -0.00060516 0)
(0.112342 -0.000626965 0)
(0.113162 -0.000648542 0)
(0.113993 -0.000669877 0)
(0.114833 -0.000690952 0)
(0.115682 -0.000711743 0)
(0.116539 -0.000732226 0)
(0.117402 -0.000752371 0)
(0.118271 -0.000772148 0)
(0.119145 -0.00079152 0)
(0.120023 -0.000810451 0)
(0.120903 -0.0008289 0)
(0.121786 -0.000846822 0)
(0.122669 -0.000864169 0)
(0.123552 -0.00088089 0)
(0.124434 -0.000896927 0)
(0.125313 -0.000912221 0)
(0.12619 -0.000926703 0)
(0.127063 -0.000940301 0)
(0.127931 -0.000952934 0)
(0.128792 -0.000964511 0)
(0.129647 -0.000974935 0)
(0.130493 -0.000984094 0)
(0.13133 -0.000991863 0)
(0.132157 -0.000998103 0)
(0.132972 -0.00100266 0)
(0.133775 -0.00100534 0)
(0.134563 -0.00100596 0)
(0.135336 -0.00100427 0)
(0.136092 -0.00100002 0)
(0.13683 -0.00099288 0)
(0.137548 -0.000982508 0)
(0.138244 -0.000968486 0)
(0.138916 -0.000950327 0)
(0.139561 -0.000927462 0)
(0.140179 -0.000899215 0)
(0.140766 -0.000864784 0)
(0.141318 -0.000823207 0)
(0.141833 -0.000773323 0)
(0.142307 -0.000713723 0)
(0.142735 -0.000642674 0)
(0.143113 -0.000558035 0)
(0.143434 -0.000457127 0)
(0.143691 -0.000336569 0)
(0.143876 -0.000192043 0)
(0.14398 -1.79653e-05 0)
(0.143991 0.000193033 0)
(0.143895 0.000450819 0)
(0.143674 0.000768852 0)
(0.143307 0.00116573 0)
(0.142769 0.00166761 0)
(0.142028 0.00231194 0)
(0.141048 0.0031532 0)
(0.139786 0.00427156 0)
(0.138198 0.00578546 0)
(0.136252 0.00786754 0)
(0.133951 0.010759 0)
(0.131397 0.0147659 0)
(0.128988 0.0201263 0)
(0.127885 0.0262719 0)
(0.100024 -6.48184e-05 0)
(0.100149 -0.000122751 0)
(0.100351 -0.000175498 0)
(0.100615 -0.000224003 0)
(0.100935 -0.000269469 0)
(0.101304 -0.000312588 0)
(0.101719 -0.000353817 0)
(0.102174 -0.000393517 0)
(0.102667 -0.00043196 0)
(0.103195 -0.000469361 0)
(0.103755 -0.00050589 0)
(0.104344 -0.000541683 0)
(0.104961 -0.000576849 0)
(0.105603 -0.000611478 0)
(0.106269 -0.000645639 0)
(0.106956 -0.000679387 0)
(0.107665 -0.000712765 0)
(0.108392 -0.000745802 0)
(0.109137 -0.000778521 0)
(0.109898 -0.000810932 0)
(0.110675 -0.000843039 0)
(0.111465 -0.00087484 0)
(0.112269 -0.000906324 0)
(0.113084 -0.000937475 0)
(0.113909 -0.00096827 0)
(0.114745 -0.000998682 0)
(0.115589 -0.00102868 0)
(0.11644 -0.00105823 0)
(0.117298 -0.00108728 0)
(0.118161 -0.00111579 0)
(0.119029 -0.00114371 0)
(0.119901 -0.00117099 0)
(0.120775 -0.00119757 0)
(0.121651 -0.00122337 0)
(0.122527 -0.00124834 0)
(0.123404 -0.0012724 0)
(0.124279 -0.00129546 0)
(0.125151 -0.00131744 0)
(0.126021 -0.00133824 0)
(0.126886 -0.00135776 0)
(0.127746 -0.00137588 0)
(0.1286 -0.00139246 0)
(0.129446 -0.00140737 0)
(0.130285 -0.00142045 0)
(0.131113 -0.00143152 0)
(0.131932 -0.00144037 0)
(0.132739 -0.00144679 0)
(0.133532 -0.00145052 0)
(0.134312 -0.00145125 0)
(0.135076 -0.00144867 0)
(0.135824 -0.00144239 0)
(0.136553 -0.00143197 0)
(0.137262 -0.00141691 0)
(0.137949 -0.00139661 0)
(0.138613 -0.0013704 0)
(0.139251 -0.00133746 0)
(0.139862 -0.00129685 0)
(0.140441 -0.00124745 0)
(0.140988 -0.0011879 0)
(0.141498 -0.00111661 0)
(0.141969 -0.00103162 0)
(0.142396 -0.000930553 0)
(0.142774 -0.000810483 0)
(0.143099 -0.000667783 0)
(0.143365 -0.000497913 0)
(0.143564 -0.000295137 0)
(0.143689 -5.21331e-05 0)
(0.143731 0.000240524 0)
(0.143679 0.000595226 0)
(0.143522 0.00102845 0)
(0.143245 0.00156225 0)
(0.142836 0.0022265 0)
(0.142279 0.00306186 0)
(0.141563 0.00412399 0)
(0.140683 0.0054887 0)
(0.139651 0.00725722 0)
(0.138512 0.00955824 0)
(0.137371 0.0125369 0)
(0.136432 0.0163079 0)
(0.136052 0.0208052 0)
(0.136733 0.0253699 0)
(0.100022 -8.47238e-05 0)
(0.100144 -0.000162173 0)
(0.100343 -0.000232334 0)
(0.100604 -0.000296922 0)
(0.100919 -0.000357438 0)
(0.101285 -0.000414808 0)
(0.101696 -0.000469647 0)
(0.102148 -0.000522438 0)
(0.102637 -0.000573546 0)
(0.103161 -0.000623258 0)
(0.103717 -0.0006718 0)
(0.104302 -0.000719354 0)
(0.104914 -0.000766067 0)
(0.105552 -0.000812057 0)
(0.106213 -0.000857416 0)
(0.106896 -0.000902219 0)
(0.1076 -0.00094652 0)
(0.108322 -0.000990362 0)
(0.109061 -0.00103377 0)
(0.109817 -0.00107676 0)
(0.110588 -0.00111934 0)
(0.111372 -0.00116151 0)
(0.11217 -0.00120324 0)
(0.112978 -0.00124452 0)
(0.113797 -0.00128532 0)
(0.114626 -0.0013256 0)
(0.115463 -0.00136532 0)
(0.116307 -0.00140443 0)
(0.117157 -0.00144288 0)
(0.118013 -0.0014806 0)
(0.118873 -0.00151752 0)
(0.119736 -0.00155358 0)
(0.120602 -0.00158869 0)
(0.121469 -0.00162277 0)
(0.122337 -0.00165572 0)
(0.123204 -0.00168746 0)
(0.12407 -0.00171786 0)
(0.124933 -0.00174681 0)
(0.125792 -0.00177419 0)
(0.126648 -0.00179985 0)
(0.127497 -0.00182363 0)
(0.128341 -0.00184538 0)
(0.129177 -0.0018649 0)
(0.130004 -0.00188198 0)
(0.130822 -0.00189639 0)
(0.131629 -0.00190786 0)
(0.132425 -0.0019161 0)
(0.133207 -0.00192076 0)
(0.133976 -0.00192148 0)
(0.134729 -0.00191781 0)
(0.135465 -0.00190927 0)
(0.136183 -0.00189527 0)
(0.136881 -0.00187518 0)
(0.137558 -0.00184822 0)
(0.138211 -0.00181351 0)
(0.138839 -0.00177004 0)
(0.13944 -0.00171658 0)
(0.140012 -0.00165171 0)
(0.140552 -0.00157373 0)
(0.141057 -0.00148063 0)
(0.141524 -0.00136997 0)
(0.141949 -0.00123882 0)
(0.14233 -0.00108358 0)
(0.142662 -0.000899877 0)
(0.14294 -0.000682266 0)
(0.143159 -0.000423987 0)
(0.143313 -0.000116571 0)
(0.143397 0.000250599 0)
(0.143403 0.0006911 0)
(0.143326 0.00122238 0)
(0.143161 0.00186694 0)
(0.142903 0.00265378 0)
(0.142554 0.00362012 0)
(0.142121 0.00481326 0)
(0.141625 0.00629186 0)
(0.141107 0.00812519 0)
(0.140642 0.0103868 0)
(0.14035 0.0131352 0)
(0.140412 0.0163679 0)
(0.141055 0.0199265 0)
(0.142474 0.0233376 0)
(0.10002 -0.000105227 0)
(0.100139 -0.000203435 0)
(0.100334 -0.000292123 0)
(0.10059 -0.000373879 0)
(0.100902 -0.000450468 0)
(0.101263 -0.000523046 0)
(0.101669 -0.000592403 0)
(0.102116 -0.000659147 0)
(0.102601 -0.000723747 0)
(0.10312 -0.000786564 0)
(0.10367 -0.000847886 0)
(0.10425 -0.000907945 0)
(0.104857 -0.000966927 0)
(0.105489 -0.00102498 0)
(0.106144 -0.00108222 0)
(0.106821 -0.00113875 0)
(0.107518 -0.00119463 0)
(0.108234 -0.00124991 0)
(0.108966 -0.00130464 0)
(0.109715 -0.00135882 0)
(0.110479 -0.00141247 0)
(0.111256 -0.00146558 0)
(0.112045 -0.00151813 0)
(0.112846 -0.0015701 0)
(0.113656 -0.00162144 0)
(0.114476 -0.00167212 0)
(0.115304 -0.00172207 0)
(0.116139 -0.00177123 0)
(0.11698 -0.00181954 0)
(0.117826 -0.00186691 0)
(0.118676 -0.00191326 0)
(0.119529 -0.0019585 0)
(0.120384 -0.00200253 0)
(0.12124 -0.00204524 0)
(0.122097 -0.00208651 0)
(0.122953 -0.00212623 0)
(0.123806 -0.00216424 0)
(0.124657 -0.00220041 0)
(0.125505 -0.00223457 0)
(0.126348 -0.00226656 0)
(0.127185 -0.00229616 0)
(0.128015 -0.00232319 0)
(0.128838 -0.00234738 0)
(0.129652 -0.0023685 0)
(0.130456 -0.00238623 0)
(0.13125 -0.00240027 0)
(0.132032 -0.00241023 0)
(0.132801 -0.00241571 0)
(0.133555 -0.00241623 0)
(0.134294 -0.00241126 0)
(0.135017 -0.00240019 0)
(0.135721 -0.00238234 0)
(0.136406 -0.00235689 0)
(0.13707 -0.00232294 0)
(0.137711 -0.0022794 0)
(0.138328 -0.00222506 0)
(0.138919 -0.00215846 0)
(0.139481 -0.0020779 0)
(0.140013 -0.0019814 0)
(0.140512 -0.00186658 0)
(0.140976 -0.00173064 0)
(0.141403 -0.0015702 0)
(0.141788 -0.00138121 0)
(0.14213 -0.00115876 0)
(0.142424 -0.000896896 0)
(0.142668 -0.00058833 0)
(0.142859 -0.000224159 0)
(0.142993 0.00020646 0)
(0.143069 0.000716904 0)
(0.143084 0.0013236 0)
(0.143042 0.00204684 0)
(0.142946 0.00291132 0)
(0.142808 0.00394657 0)
(0.142647 0.00518688 0)
(0.142495 0.00667015 0)
(0.142401 0.00843422 0)
(0.142439 0.0105087 0)
(0.142709 0.0128989 0)
(0.143333 0.0155566 0)
(0.144437 0.0183357 0)
(0.146081 0.0209443 0)
(0.100017 -0.000126338 0)
(0.100134 -0.000246486 0)
(0.100324 -0.000354825 0)
(0.100575 -0.00045485 0)
(0.100882 -0.000548567 0)
(0.101238 -0.000637352 0)
(0.101638 -0.000722172 0)
(0.10208 -0.000803771 0)
(0.102558 -0.000882722 0)
(0.103071 -0.00095947 0)
(0.103615 -0.00103437 0)
(0.104189 -0.0011077 0)
(0.104789 -0.0011797 0)
(0.105414 -0.00125054 0)
(0.106062 -0.00132036 0)
(0.106731 -0.0013893 0)
(0.10742 -0.00145742 0)
(0.108128 -0.0015248 0)
(0.108852 -0.00159147 0)
(0.109593 -0.00165746 0)
(0.110347 -0.00172277 0)
(0.111115 -0.00178741 0)
(0.111895 -0.00185134 0)
(0.112685 -0.00191454 0)
(0.113486 -0.00197695 0)
(0.114295 -0.00203853 0)
(0.115112 -0.0020992 0)
(0.115936 -0.00215888 0)
(0.116766 -0.0022175 0)
(0.1176 -0.00227494 0)
(0.118438 -0.00233113 0)
(0.119278 -0.00238592 0)
(0.120121 -0.00243922 0)
(0.120964 -0.00249088 0)
(0.121807 -0.00254076 0)
(0.122649 -0.00258872 0)
(0.123489 -0.00263458 0)
(0.124325 -0.00267816 0)
(0.125158 -0.00271928 0)
(0.125986 -0.00275771 0)
(0.126808 -0.00279324 0)
(0.127623 -0.00282559 0)
(0.12843 -0.00285448 0)
(0.129229 -0.00287961 0)
(0.130017 -0.00290063 0)
(0.130795 -0.00291713 0)
(0.13156 -0.00292869 0)
(0.132313 -0.00293481 0)
(0.133051 -0.00293494 0)
(0.133774 -0.00292845 0)
(0.134481 -0.00291463 0)
(0.13517 -0.00289266 0)
(0.13584 -0.00286161 0)
(0.136489 -0.00282042 0)
(0.137116 -0.00276786 0)
(0.137721 -0.00270253 0)
(0.1383 -0.00262277 0)
(0.138852 -0.00252667 0)
(0.139377 -0.00241203 0)
(0.139871 -0.00227621 0)
(0.140333 -0.00211616 0)
(0.140761 -0.00192824 0)
(0.141153 -0.00170816 0)
(0.141508 -0.00145082 0)
(0.141823 -0.00115014 0)
(0.142098 -0.000798858 0)
(0.14233 -0.000388342 0)
(0.142522 9.16662e-05 0)
(0.142673 0.000652774 0)
(0.142786 0.00130914 0)
(0.142869 0.00207711 0)
(0.142931 0.00297521 0)
(0.142989 0.00402375 0)
(0.143066 0.00524374 0)
(0.143195 0.00665472 0)
(0.143422 0.00827091 0)
(0.143806 0.0100946 0)
(0.144414 0.0121062 0)
(0.145322 0.0142499 0)
(0.146587 0.0164173 0)
(0.148221 0.0184394 0)
(0.100015 -0.000148076 0)
(0.100129 -0.000291286 0)
(0.100314 -0.000420402 0)
(0.10056 -0.000539801 0)
(0.10086 -0.000651725 0)
(0.10121 -0.000757744 0)
(0.101604 -0.000859004 0)
(0.102039 -0.000956389 0)
(0.10251 -0.00105058 0)
(0.103016 -0.00114212 0)
(0.103553 -0.00123141 0)
(0.104118 -0.00131881 0)
(0.10471 -0.00140458 0)
(0.105327 -0.00148894 0)
(0.105966 -0.00157207 0)
(0.106627 -0.0016541 0)
(0.107307 -0.00173514 0)
(0.108005 -0.00181526 0)
(0.108719 -0.00189451 0)
(0.109449 -0.00197292 0)
(0.110193 -0.0020505 0)
(0.11095 -0.00212723 0)
(0.111719 -0.0022031 0)
(0.112498 -0.00227806 0)
(0.113286 -0.00235206 0)
(0.114083 -0.00242502 0)
(0.114888 -0.00249687 0)
(0.115699 -0.00256752 0)
(0.116515 -0.00263686 0)
(0.117335 -0.00270478 0)
(0.118159 -0.00277115 0)
(0.118985 -0.00283585 0)
(0.119812 -0.00289872 0)
(0.12064 -0.00295961 0)
(0.121467 -0.00301835 0)
(0.122293 -0.00307476 0)
(0.123117 -0.00312865 0)
(0.123937 -0.0031798 0)
(0.124753 -0.00322798 0)
(0.125563 -0.00327295 0)
(0.126368 -0.00331442 0)
(0.127165 -0.00335211 0)
(0.127955 -0.00338568 0)
(0.128735 -0.00341476 0)
(0.129505 -0.00343895 0)
(0.130264 -0.0034578 0)
(0.131011 -0.0034708 0)
(0.131746 -0.00347739 0)
(0.132466 -0.00347694 0)
(0.133171 -0.00346872 0)
(0.13386 -0.00345193 0)
(0.134532 -0.00342566 0)
(0.135185 -0.00338887 0)
(0.135818 -0.00334036 0)
(0.136431 -0.00327878 0)
(0.137022 -0.00320259 0)
(0.137589 -0.00311001 0)
(0.138131 -0.00299898 0)
(0.138648 -0.00286713 0)
(0.139138 -0.00271174 0)
(0.139599 -0.00252962 0)
(0.14003 -0.00231709 0)
(0.140432 -0.00206988 0)
(0.140802 -0.001783 0)
(0.141141 -0.00145068 0)
(0.141449 -0.00106622 0)
(0.141727 -0.000621897 0)
(0.141978 -0.000108886 0)
(0.142206 0.000482383 0)
(0.142415 0.00116256 0)
(0.142616 0.00194332 0)
(0.142821 0.00283675 0)
(0.143047 0.00385458 0)
(0.143317 0.00500684 0)
(0.14366 0.0062998 0)
(0.144112 0.00773306 0)
(0.144712 0.00929549 0)
(0.145504 0.0109602 0)
(0.146528 0.012679 0)
(0.147807 0.0143788 0)
(0.149335 0.0159642 0)
(0.100012 -0.000170466 0)
(0.100123 -0.00033781 0)
(0.100304 -0.000488821 0)
(0.100544 -0.000628694 0)
(0.100837 -0.000759911 0)
(0.10118 -0.00088421 0)
(0.101567 -0.00100291 0)
(0.101994 -0.00111704 0)
(0.102457 -0.00122739 0)
(0.102954 -0.00133458 0)
(0.103482 -0.00143911 0)
(0.104039 -0.00154138 0)
(0.104622 -0.0016417 0)
(0.105229 -0.00174034 0)
(0.105858 -0.0018375 0)
(0.106508 -0.00193333 0)
(0.107178 -0.00202795 0)
(0.107865 -0.00212147 0)
(0.108568 -0.00221392 0)
(0.109286 -0.00230536 0)
(0.110018 -0.00239578 0)
(0.110762 -0.00248517 0)
(0.111517 -0.00257351 0)
(0.112283 -0.00266075 0)
(0.113058 -0.00274681 0)
(0.113841 -0.00283163 0)
(0.11463 -0.0029151 0)
(0.115426 -0.00299712 0)
(0.116227 -0.00307757 0)
(0.117031 -0.00315632 0)
(0.117839 -0.00323321 0)
(0.118648 -0.0033081 0)
(0.119458 -0.0033808 0)
(0.120269 -0.00345116 0)
(0.121078 -0.00351895 0)
(0.121886 -0.00358398 0)
(0.122691 -0.00364603 0)
(0.123492 -0.00370483 0)
(0.124289 -0.00376014 0)
(0.12508 -0.00381166 0)
(0.125865 -0.00385908 0)
(0.126643 -0.00390206 0)
(0.127412 -0.00394023 0)
(0.128172 -0.00397316 0)
(0.128922 -0.0040004 0)
(0.12966 -0.00402144 0)
(0.130387 -0.00403571 0)
(0.131101 -0.0040426 0)
(0.131801 -0.00404138 0)
(0.132487 -0.00403128 0)
(0.133156 -0.0040114 0)
(0.133809 -0.00398075 0)
(0.134445 -0.0039382 0)
(0.135061 -0.00388248 0)
(0.135658 -0.00381216 0)
(0.136235 -0.00372559 0)
(0.13679 -0.00362092 0)
(0.137322 -0.00349605 0)
(0.137832 -0.00334857 0)
(0.138317 -0.00317575 0)
(0.138778 -0.00297449 0)
(0.139215 -0.00274125 0)
(0.139627 -0.00247199 0)
(0.140014 -0.00216219 0)
(0.140379 -0.00180672 0)
(0.140722 -0.00139986 0)
(0.141046 -0.000935283 0)
(0.141355 -0.000406072 0)
(0.141655 0.000195315 0)
(0.141952 0.000875598 0)
(0.142257 0.00164192 0)
(0.142582 0.00250077 0)
(0.142943 0.00345711 0)
(0.143359 0.00451325 0)
(0.143852 0.00566737 0)
(0.144447 0.00691178 0)
(0.14517 0.00823087 0)
(0.146045 0.00959917 0)
(0.147091 0.0109801 0)
(0.148315 0.0123264 0)
(0.149706 0.0135845 0)
(0.100009 -0.000193538 0)
(0.100118 -0.000386036 0)
(0.100294 -0.000560048 0)
(0.100527 -0.000721483 0)
(0.100813 -0.000873077 0)
(0.101148 -0.00101671 0)
(0.101527 -0.00115386 0)
(0.101945 -0.0012857 0)
(0.102399 -0.00141313 0)
(0.102887 -0.00153687 0)
(0.103405 -0.0016575 0)
(0.103952 -0.00177545 0)
(0.104524 -0.00189112 0)
(0.10512 -0.00200479 0)
(0.105738 -0.00211669 0)
(0.106376 -0.00222702 0)
(0.107033 -0.00233591 0)
(0.107708 -0.00244346 0)
(0.108398 -0.00254974 0)
(0.109102 -0.00265479 0)
(0.10982 -0.00275862 0)
(0.11055 -0.00286121 0)
(0.111291 -0.00296254 0)
(0.112041 -0.00306254 0)
(0.1128 -0.00316113 0)
(0.113567 -0.00325823 0)
(0.11434 -0.00335373 0)
(0.115119 -0.0034475 0)
(0.115902 -0.0035394 0)
(0.116689 -0.00362927 0)
(0.117478 -0.00371696 0)
(0.118269 -0.00380229 0)
(0.11906 -0.00388504 0)
(0.119851 -0.00396503 0)
(0.12064 -0.00404203 0)
(0.121428 -0.00411579 0)
(0.122212 -0.00418606 0)
(0.122993 -0.00425256 0)
(0.123768 -0.004315 0)
(0.124538 -0.00437304 0)
(0.125301 -0.00442635 0)
(0.126056 -0.00447453 0)
(0.126803 -0.00451717 0)
(0.127541 -0.00455381 0)
(0.128268 -0.00458395 0)
(0.128985 -0.00460702 0)
(0.129689 -0.0046224 0)
(0.130382 -0.00462943 0)
(0.13106 -0.00462732 0)
(0.131724 -0.00461524 0)
(0.132373 -0.00459225 0)
(0.133006 -0.00455728 0)
(0.133623 -0.00450917 0)
(0.134221 -0.00444659 0)
(0.134802 -0.00436807 0)
(0.135364 -0.00427196 0)
(0.135906 -0.0041564 0)
(0.136429 -0.00401931 0)
(0.136931 -0.00385838 0)
(0.137413 -0.00367102 0)
(0.137875 -0.00345433 0)
(0.138317 -0.0032051 0)
(0.138741 -0.0029198 0)
(0.139146 -0.00259454 0)
(0.139535 -0.00222512 0)
(0.139912 -0.00180703 0)
(0.140279 -0.00133554 0)
(0.140641 -0.000805787 0)
(0.141004 -0.000212851 0)
(0.141377 0.000447759 0)
(0.141767 0.00117874 0)
(0.142186 0.00198228 0)
(0.142647 0.00285871 0)
(0.143164 0.00380572 0)
(0.143753 0.00481751 0)
(0.14443 0.00588389 0)
(0.145211 0.00698954 0)
(0.146106 0.00811365 0)
(0.147125 0.00923014 0)
(0.148266 0.0103091 0)
(0.149519 0.01132 0)
(0.100006 -0.000217316 0)
(0.100113 -0.000435942 0)
(0.100283 -0.000634043 0)
(0.10051 -0.000818112 0)
(0.100789 -0.000991152 0)
(0.101115 -0.00115517 0)
(0.101484 -0.00131178 0)
(0.101893 -0.00146231 0)
(0.102337 -0.00160776 0)
(0.102815 -0.00174895 0)
(0.103322 -0.00188652 0)
(0.103856 -0.00202099 0)
(0.104417 -0.00215278 0)
(0.105 -0.00228223 0)
(0.105605 -0.00240961 0)
(0.106231 -0.00253512 0)
(0.106874 -0.00265893 0)
(0.107534 -0.00278115 0)
(0.108209 -0.00290186 0)
(0.108899 -0.0030211 0)
(0.109601 -0.00313888 0)
(0.110315 -0.00325519 0)
(0.111039 -0.00336998 0)
(0.111773 -0.00348319 0)
(0.112514 -0.00359474 0)
(0.113263 -0.00370451 0)
(0.114018 -0.00381239 0)
(0.114777 -0.00391823 0)
(0.115541 -0.00402187 0)
(0.116308 -0.00412315 0)
(0.117077 -0.00422186 0)
(0.117847 -0.0043178 0)
(0.118617 -0.00441076 0)
(0.119386 -0.00450051 0)
(0.120154 -0.00458678 0)
(0.120919 -0.00466932 0)
(0.12168 -0.00474783 0)
(0.122438 -0.00482201 0)
(0.12319 -0.00489152 0)
(0.123936 -0.00495601 0)
(0.124675 -0.0050151 0)
(0.125406 -0.00506835 0)
(0.126129 -0.00511532 0)
(0.126843 -0.00515551 0)
(0.127546 -0.00518838 0)
(0.128239 -0.00521331 0)
(0.12892 -0.00522967 0)
(0.129588 -0.00523672 0)
(0.130244 -0.00523366 0)
(0.130885 -0.00521961 0)
(0.131513 -0.00519361 0)
(0.132125 -0.00515457 0)
(0.132721 -0.00510129 0)
(0.133302 -0.00503247 0)
(0.133866 -0.00494665 0)
(0.134412 -0.00484221 0)
(0.134942 -0.00471739 0)
(0.135455 -0.00457023 0)
(0.13595 -0.0043986 0)
(0.136429 -0.00420016 0)
(0.136892 -0.00397237 0)
(0.13734 -0.00371251 0)
(0.137773 -0.00341766 0)
(0.138195 -0.00308475 0)
(0.138608 -0.0027106 0)
(0.139014 -0.00229202 0)
(0.139418 -0.00182586 0)
(0.139825 -0.0013092 0)
(0.14024 -0.000739422 0)
(0.140671 -0.000114329 0)
(0.141126 0.000566946 0)
(0.141613 0.00130288 0)
(0.142142 0.00209105 0)
(0.142722 0.00292696 0)
(0.143365 0.00380346 0)
(0.144079 0.00471056 0)
(0.144873 0.00563525 0)
(0.145752 0.00656174 0)
(0.146718 0.00747208 0)
(0.147768 0.00834743 0)
(0.148891 0.00917022 0)
(0.100003 -0.000241815 0)
(0.100108 -0.000487504 0)
(0.100273 -0.000710752 0)
(0.100492 -0.000918504 0)
(0.100763 -0.00111404 0)
(0.10108 -0.00129947 0)
(0.10144 -0.00147656 0)
(0.101838 -0.00164673 0)
(0.102271 -0.00181113 0)
(0.102737 -0.00197065 0)
(0.103232 -0.00212602 0)
(0.103754 -0.00227782 0)
(0.104301 -0.00242651 0)
(0.10487 -0.00257249 0)
(0.105461 -0.00271605 0)
(0.106072 -0.00285743 0)
(0.1067 -0.0029968 0)
(0.107344 -0.0031343 0)
(0.108003 -0.00327001 0)
(0.108676 -0.00340398 0)
(0.109361 -0.00353622 0)
(0.110057 -0.00366672 0)
(0.110763 -0.00379542 0)
(0.111477 -0.00392226 0)
(0.112199 -0.00404714 0)
(0.112928 -0.00416993 0)
(0.113663 -0.0042905 0)
(0.114401 -0.00440868 0)
(0.115144 -0.0045243 0)
(0.115889 -0.00463717 0)
(0.116635 -0.00474706 0)
(0.117382 -0.00485376 0)
(0.118129 -0.00495702 0)
(0.118875 -0.00505657 0)
(0.119618 -0.00515215 0)
(0.120359 -0.00524344 0)
(0.121096 -0.00533015 0)
(0.121828 -0.00541192 0)
(0.122555 -0.00548841 0)
(0.123276 -0.00555921 0)
(0.123989 -0.00562392 0)
(0.124695 -0.00568208 0)
(0.125392 -0.00573321 0)
(0.126079 -0.00577677 0)
(0.126757 -0.0058122 0)
(0.127424 -0.00583887 0)
(0.12808 -0.00585609 0)
(0.128723 -0.00586311 0)
(0.129355 -0.00585914 0)
(0.129972 -0.00584326 0)
(0.130577 -0.00581451 0)
(0.131167 -0.00577182 0)
(0.131743 -0.00571403 0)
(0.132305 -0.00563986 0)
(0.132851 -0.00554795 0)
(0.133383 -0.00543678 0)
(0.1339 -0.00530474 0)
(0.134402 -0.00515008 0)
(0.13489 -0.00497093 0)
(0.135366 -0.00476532 0)
(0.135828 -0.00453115 0)
(0.13628 -0.00426626 0)
(0.136723 -0.00396844 0)
(0.137159 -0.00363547 0)
(0.13759 -0.00326523 0)
(0.138021 -0.00285572 0)
(0.138455 -0.00240524 0)
(0.138896 -0.00191246 0)
(0.13935 -0.00137659 0)
(0.139822 -0.000797453 0)
(0.140321 -0.000175468 0)
(0.140851 0.000487513 0)
(0.141419 0.00118654 0)
(0.142032 0.00191637 0)
(0.142696 0.00267009 0)
(0.143416 0.00343912 0)
(0.144196 0.00421323 0)
(0.145037 0.00498095 0)
(0.145938 0.00573015 0)
(0.146897 0.00644894 0)
(0.147905 0.00712706 0)
(0.1 -0.000267041 0)
(0.100103 -0.000540682 0)
(0.100262 -0.000790099 0)
(0.100474 -0.00102255 0)
(0.100736 -0.0012416 0)
(0.101044 -0.00144946 0)
(0.101393 -0.00164799 0)
(0.10178 -0.00183877 0)
(0.102201 -0.00202302 0)
(0.102654 -0.00220175 0)
(0.103135 -0.00237576 0)
(0.103643 -0.00254567 0)
(0.104176 -0.00271204 0)
(0.10473 -0.00287526 0)
(0.105306 -0.00303568 0)
(0.1059 -0.00319357 0)
(0.106511 -0.00334911 0)
(0.107138 -0.00350246 0)
(0.107779 -0.00365372 0)
(0.108433 -0.00380292 0)
(0.109099 -0.0039501 0)
(0.109775 -0.00409522 0)
(0.110461 -0.00423823 0)
(0.111155 -0.00437905 0)
(0.111856 -0.00451758 0)
(0.112563 -0.00465367 0)
(0.113275 -0.00478718 0)
(0.113991 -0.00491792 0)
(0.11471 -0.00504569 0)
(0.115431 -0.00517028 0)
(0.116153 -0.00529146 0)
(0.116875 -0.00540897 0)
(0.117597 -0.00552254 0)
(0.118317 -0.00563189 0)
(0.119034 -0.00573672 0)
(0.119749 -0.00583669 0)
(0.120459 -0.00593148 0)
(0.121164 -0.00602071 0)
(0.121864 -0.00610401 0)
(0.122557 -0.00618095 0)
(0.123243 -0.00625109 0)
(0.123921 -0.00631396 0)
(0.124591 -0.00636906 0)
(0.125251 -0.00641582 0)
(0.125901 -0.00645367 0)
(0.126541 -0.00648196 0)
(0.12717 -0.0065 0)
(0.127788 -0.00650704 0)
(0.128393 -0.00650228 0)
(0.128987 -0.00648484 0)
(0.129567 -0.00645378 0)
(0.130135 -0.00640808 0)
(0.13069 -0.00634665 0)
(0.131232 -0.00626831 0)
(0.13176 -0.0061718 0)
(0.132276 -0.00605581 0)
(0.13278 -0.00591891 0)
(0.133271 -0.00575964 0)
(0.133751 -0.00557645 0)
(0.134222 -0.00536777 0)
(0.134683 -0.00513202 0)
(0.135137 -0.00486762 0)
(0.135586 -0.00457307 0)
(0.136032 -0.00424698 0)
(0.136477 -0.00388813 0)
(0.136925 -0.00349558 0)
(0.137379 -0.00306876 0)
(0.137843 -0.00260755 0)
(0.138322 -0.00211241 0)
(0.13882 -0.00158447 0)
(0.139342 -0.00102551 0)
(0.139892 -0.000437942 0)
(0.140477 0.000175266 0)
(0.141099 0.00080819 0)
(0.14176 0.00145397 0)
(0.142465 0.00210568 0)
(0.143213 0.00275567 0)
(0.144005 0.00339593 0)
(0.144838 0.00401833 0)
(0.14571 0.00461533 0)
(0.146614 0.00518088 0)
(0.0999966 -0.000292983 0)
(0.100097 -0.000595419 0)
(0.100252 -0.000871976 0)
(0.100456 -0.00113011 0)
(0.100709 -0.00137365 0)
(0.101006 -0.0016049 0)
(0.101344 -0.00182583 0)
(0.101719 -0.00203812 0)
(0.102127 -0.00224312 0)
(0.102566 -0.0024419 0)
(0.103033 -0.00263533 0)
(0.103526 -0.00282414 0)
(0.104042 -0.00300889 0)
(0.10458 -0.00319005 0)
(0.105138 -0.00336798 0)
(0.105714 -0.00354298 0)
(0.106307 -0.00371527 0)
(0.106915 -0.00388501 0)
(0.107536 -0.00405229 0)
(0.10817 -0.00421719 0)
(0.108815 -0.0043797 0)
(0.10947 -0.00453982 0)
(0.110134 -0.00469748 0)
(0.110805 -0.00485258 0)
(0.111483 -0.00500502 0)
(0.112166 -0.00515463 0)
(0.112854 -0.00530125 0)
(0.113545 -0.00544468 0)
(0.114238 -0.0055847 0)
(0.114934 -0.00572108 0)
(0.115629 -0.00585355 0)
(0.116325 -0.00598185 0)
(0.117019 -0.00610569 0)
(0.117712 -0.00622475 0)
(0.118401 -0.00633871 0)
(0.119087 -0.00644722 0)
(0.119769 -0.00654991 0)
(0.120446 -0.00664641 0)
(0.121116 -0.00673631 0)
(0.12178 -0.00681916 0)
(0.122437 -0.00689452 0)
(0.123086 -0.00696189 0)
(0.123726 -0.00702075 0)
(0.124357 -0.00707055 0)
(0.124979 -0.0071107 0)
(0.125591 -0.00714055 0)
(0.126192 -0.00715944 0)
(0.126782 -0.00716662 0)
(0.127361 -0.00716134 0)
(0.127929 -0.00714275 0)
(0.128485 -0.00710998 0)
(0.129029 -0.0070621 0)
(0.129562 -0.00699812 0)
(0.130083 -0.006917 0)
(0.130593 -0.00681765 0)
(0.131093 -0.00669897 0)
(0.131582 -0.00655978 0)
(0.132061 -0.00639893 0)
(0.132532 -0.00621524 0)
(0.132996 -0.00600757 0)
(0.133453 -0.00577484 0)
(0.133906 -0.00551603 0)
(0.134357 -0.00523028 0)
(0.134807 -0.00491691 0)
(0.13526 -0.00457547 0)
(0.135718 -0.00420583 0)
(0.136183 -0.00380822 0)
(0.13666 -0.00338334 0)
(0.13715 -0.00293239 0)
(0.137658 -0.00245713 0)
(0.138188 -0.00195993 0)
(0.138741 -0.00144372 0)
(0.139321 -0.000911863 0)
(0.139932 -0.000367868 0)
(0.140574 0.000183883 0)
(0.141249 0.000737375 0)
(0.141955 0.00128589 0)
(0.142692 0.00182379 0)
(0.143457 0.00234562 0)
(0.144247 0.00284662 0)
(0.145059 0.00332334 0)
(0.0999928 -0.000319615 0)
(0.100091 -0.000651634 0)
(0.100241 -0.000956237 0)
(0.100437 -0.00124098 0)
(0.10068 -0.00150992 0)
(0.100967 -0.00176548 0)
(0.101293 -0.00200971 0)
(0.101654 -0.00224438 0)
(0.102048 -0.00247095 0)
(0.102472 -0.00269058 0)
(0.102924 -0.00290421 0)
(0.1034 -0.00311262 0)
(0.103899 -0.00331644 0)
(0.104419 -0.00351616 0)
(0.104959 -0.00371221 0)
(0.105515 -0.00390488 0)
(0.106088 -0.00409442 0)
(0.106675 -0.00428101 0)
(0.107275 -0.00446476 0)
(0.107887 -0.00464573 0)
(0.108509 -0.00482394 0)
(0.109141 -0.00499935 0)
(0.109781 -0.00517192 0)
(0.110427 -0.00534152 0)
(0.11108 -0.00550804 0)
(0.111737 -0.00567131 0)
(0.112399 -0.00583114 0)
(0.113063 -0.00598731 0)
(0.113729 -0.0061396 0)
(0.114397 -0.00628774 0)
(0.115064 -0.00643145 0)
(0.115731 -0.00657045 0)
(0.116396 -0.00670441 0)
(0.117059 -0.00683302 0)