/*--------------------------------*- C++ -*----------------------------------*\
| =========                 |                                                 |
| \\      /  F ield         | OpenFOAM: The Open Source CFD Toolbox           |
|  \\    /   O peration     | Version:  2106                                  |
|   \\  /    A nd           | Website:  www.openfoam.com                      |
|    \\/     M anipulation  |                                                 |
\*---------------------------------------------------------------------------*/
FoamFile
{
    version     2.0;
    format      ascii;
    arch        "LSB;label=32;scalar=64";
    class       surfaceScalarField;
    location    "0.19";
    object      phi;
}
// * * * * * * * * * * * * * * * * * * * * * * * * * * * * * * * * * * * * * //

dimensions      [1 0 -1 0 0 0 0];

oriented        oriented;

internalField   nonuniform List<scalar> 
23692
(
9.28599e-05
2.19637e-07
9.25192e-05
3.40738e-07
9.22211e-05
2.98086e-07
9.20237e-05
1.97399e-07
9.18914e-05
1.32352e-07
9.17783e-05
1.13102e-07
9.16606e-05
1.17706e-07
9.1532e-05
1.28534e-07
9.13939e-05
1.38105e-07
9.1249e-05
1.449e-07
9.10995e-05
1.49488e-07
9.09468e-05
1.52721e-07
9.07916e-05
1.55239e-07
9.06342e-05
1.57412e-07
9.04748e-05
1.59433e-07
9.03134e-05
1.61389e-07
9.01501e-05
1.63322e-07
8.99849e-05
1.65248e-07
8.98177e-05
1.6716e-07
8.96487e-05
1.69043e-07
8.9478e-05
1.70863e-07
8.93055e-05
1.72579e-07
8.91315e-05
1.74144e-07
8.89561e-05
1.75515e-07
8.87797e-05
1.76656e-07
8.86024e-05
1.77539e-07
8.84246e-05
1.7814e-07
8.82466e-05
1.78456e-07
8.80687e-05
1.78483e-07
8.78911e-05
1.78235e-07
8.77141e-05
1.77738e-07
8.7538e-05
1.77021e-07
8.7363e-05
1.76118e-07
8.71893e-05
1.75069e-07
8.70169e-05
1.73917e-07
8.6846e-05
1.72709e-07
8.66765e-05
1.71484e-07
8.65086e-05
1.70285e-07
8.63422e-05
1.69146e-07
8.61771e-05
1.68101e-07
8.60133e-05
1.67179e-07
8.58508e-05
1.66408e-07
8.56892e-05
1.65803e-07
8.55286e-05
1.65386e-07
8.53686e-05
1.65161e-07
8.52092e-05
1.65139e-07
8.50501e-05
1.65323e-07
8.48911e-05
1.65716e-07
8.47321e-05
1.66327e-07
8.45728e-05
1.67164e-07
8.4413e-05
1.68238e-07
8.42524e-05
1.69571e-07
8.40908e-05
1.71197e-07
8.39279e-05
1.73162e-07
8.37631e-05
1.75536e-07
8.3596e-05
1.7841e-07
8.3426e-05
1.81904e-07
8.32523e-05
1.86178e-07
8.3074e-05
1.9143e-07
8.28896e-05
1.97916e-07
8.26977e-05
2.05963e-07
8.24964e-05
2.15984e-07
8.22829e-05
2.28513e-07
8.20543e-05
2.44238e-07
8.18062e-05
2.64058e-07
8.15335e-05
2.89166e-07
8.12292e-05
3.21157e-07
8.08842e-05
3.62205e-07
8.04865e-05
4.15327e-07
8.00196e-05
4.84773e-07
7.94612e-05
5.76665e-07
7.87797e-05
6.99978e-07
7.79304e-05
8.68136e-07
7.68478e-05
1.10157e-06
7.54352e-05
1.43189e-06
7.35461e-05
1.90853e-06
7.09566e-05
2.60906e-06
6.73204e-05
3.65599e-06
6.20856e-05
5.25469e-06
5.43207e-05
7.78503e-06
1.22501e-05
4.20908e-05
9.93746e-05
4.44432e-07
9.90175e-05
6.97803e-07
9.87007e-05
6.14894e-07
9.8488e-05
4.10105e-07
9.83437e-05
2.76684e-07
9.82203e-05
2.36442e-07
9.80929e-05
2.45093e-07
9.79547e-05
2.66744e-07
9.78068e-05
2.8604e-07
9.76519e-05
2.99803e-07
9.74922e-05
3.09122e-07
9.73293e-05
3.15718e-07
9.71636e-05
3.20867e-07
9.69957e-05
3.25319e-07
9.68257e-05
3.29464e-07
9.66536e-05
3.33481e-07
9.64795e-05
3.37451e-07
9.63034e-05
3.41404e-07
9.61253e-05
3.45337e-07
9.59452e-05
3.49204e-07
9.57632e-05
3.52944e-07
9.55794e-05
3.56471e-07
9.5394e-05
3.59692e-07
9.52072e-05
3.62515e-07
9.50192e-05
3.64869e-07
9.48303e-05
3.66691e-07
9.46409e-05
3.67946e-07
9.44512e-05
3.6861e-07
9.42616e-05
3.68686e-07
9.40723e-05
3.68199e-07
9.38837e-05
3.67197e-07
9.3696e-05
3.65747e-07
9.35094e-05
3.63918e-07
9.3324e-05
3.61786e-07
9.31402e-05
3.59444e-07
9.29578e-05
3.56982e-07
9.2777e-05
3.54492e-07
9.25977e-05
3.52051e-07
9.242e-05
3.49735e-07
9.22438e-05
3.4761e-07
9.20689e-05
3.45737e-07
9.18952e-05
3.4417e-07
9.17226e-05
3.4295e-07
9.15509e-05
3.42108e-07
9.138e-05
3.41665e-07
9.12096e-05
3.41635e-07
9.10395e-05
3.42025e-07
9.08696e-05
3.42848e-07
9.06997e-05
3.44115e-07
9.05294e-05
3.45843e-07
9.03586e-05
3.48057e-07
9.0187e-05
3.50801e-07
9.00143e-05
3.54142e-07
8.98402e-05
3.58178e-07
8.96642e-05
3.63045e-07
8.94858e-05
3.6893e-07
8.93044e-05
3.76081e-07
8.91191e-05
3.84813e-07
8.89289e-05
3.9553e-07
8.87326e-05
4.08748e-07
8.85285e-05
4.25118e-07
8.83147e-05
4.4547e-07
8.80885e-05
4.7086e-07
8.78467e-05
5.02652e-07
8.75853e-05
5.42617e-07
8.72989e-05
5.93078e-07
8.6981e-05
6.57123e-07
8.66227e-05
7.38915e-07
8.62127e-05
8.44151e-07
8.57358e-05
9.80748e-07
8.51721e-05
1.15989e-06
8.44943e-05
1.39762e-06
8.36652e-05
1.71726e-06
8.2634e-05
2.15313e-06
8.13306e-05
2.75588e-06
7.966e-05
3.59991e-06
7.74986e-05
4.7914e-06
7.47021e-05
6.4736e-06
7.11531e-05
8.82496e-06
6.69706e-05
1.19889e-05
1.55709e-05
6.36713e-05
0.000106356
6.63964e-07
0.000105992
1.06178e-06
0.000105661
9.46609e-07
0.00010543
6.412e-07
0.000105268
4.37996e-07
0.000105131
3.74127e-07
0.000104991
3.84804e-07
0.000104841
4.16128e-07
0.000104683
4.44619e-07
0.000104518
4.6515e-07
0.000104347
4.79162e-07
0.000104174
4.89142e-07
0.000103998
4.96977e-07
0.000103819
5.03768e-07
0.000103639
5.10103e-07
0.000103456
5.16252e-07
0.000103271
5.22329e-07
0.000103084
5.28384e-07
0.000102895
5.34405e-07
0.000102704
5.4033e-07
0.000102511
5.46063e-07
0.000102316
5.51472e-07
0.00010212
5.56413e-07
0.000101922
5.60757e-07
0.000101722
5.64385e-07
0.000101522
5.67209e-07
0.000101321
5.69167e-07
0.00010112
5.70229e-07
0.000100919
5.70393e-07
0.000100718
5.69702e-07
0.000100518
5.68231e-07
0.000100319
5.66071e-07
0.000100121
5.63331e-07
9.9924e-05
5.60132e-07
9.97286e-05
5.5661e-07
9.95347e-05
5.52904e-07
9.93424e-05
5.49149e-07
9.91517e-05
5.4547e-07
9.89625e-05
5.41978e-07
9.87748e-05
5.38776e-07
9.85885e-05
5.35956e-07
9.84035e-05
5.336e-07
9.82195e-05
5.31771e-07
9.80365e-05
5.30516e-07
9.78543e-05
5.29866e-07
9.76726e-05
5.29842e-07
9.74912e-05
5.30459e-07
9.73101e-05
5.31731e-07
9.71289e-05
5.33678e-07
9.69474e-05
5.36324e-07
9.67654e-05
5.39708e-07
9.65826e-05
5.43898e-07
9.63987e-05
5.48991e-07
9.62134e-05
5.55138e-07
9.60262e-05
5.62545e-07
9.58366e-05
5.71492e-07
9.56439e-05
5.82346e-07
9.54474e-05
5.95585e-07
9.5246e-05
6.11809e-07
9.50385e-05
6.31781e-07
9.48232e-05
6.56463e-07
9.45983e-05
6.8707e-07
9.43613e-05
7.25143e-07
9.4109e-05
7.72653e-07
9.38378e-05
8.32129e-07
9.35428e-05
9.06857e-07
9.3218e-05
1.00114e-06
9.28559e-05
1.1207e-06
9.2447e-05
1.27318e-06
9.19792e-05
1.46899e-06
9.14375e-05
1.72242e-06
9.08031e-05
2.05322e-06
9.00528e-05
2.48899e-06
8.91595e-05
3.06816e-06
8.80936e-05
3.84376e-06
8.6829e-05
4.88671e-06
8.53574e-05
6.2853e-06
8.37207e-05
8.13291e-06
8.20815e-05
1.04868e-05
8.08571e-05
1.32361e-05
1.57348e-05
8.07161e-05
0.000113837
8.678e-07
0.000113479
1.42027e-06
0.000113136
1.28877e-06
0.000112884
8.93385e-07
0.000112701
6.21446e-07
0.000112544
5.30601e-07
0.000112389
5.39743e-07
0.000112227
5.7833e-07
0.000112057
6.14698e-07
0.000111881
6.41365e-07
0.0001117
6.59796e-07
0.000111516
6.73058e-07
0.00011133
6.83546e-07
0.000111141
6.92683e-07
0.00011095
7.01225e-07
0.000110757
7.09527e-07
0.000110561
7.17739e-07
0.000110364
7.25926e-07
0.000110164
7.34067e-07
0.000109962
7.42084e-07
0.000109759
7.4984e-07
0.000109553
7.57167e-07
0.000109346
7.63874e-07
0.000109137
7.6978e-07
0.000108927
7.74732e-07
0.000108716
7.78611e-07
0.000108504
7.81331e-07
0.000108292
7.82854e-07
0.00010808
7.83178e-07
0.000107868
7.82355e-07
0.000107657
7.80483e-07
0.000107446
7.77686e-07
0.000107237
7.74108e-07
0.000107029
7.69911e-07
0.000106822
7.65276e-07
0.000106617
7.60389e-07
0.000106413
7.5543e-07
0.000106211
7.50564e-07
0.00010601
7.45944e-07
0.000105811
7.41708e-07
0.000105613
7.3798e-07
0.000105416
7.34865e-07
0.000105221
7.32451e-07
0.000105026
7.30798e-07
0.000104832
7.29949e-07
0.000104639
7.29931e-07
0.000104447
7.30766e-07
0.000104254
7.32472e-07
0.000104062
7.35074e-07
0.000103869
7.38603e-07
0.000103676
7.43115e-07
0.000103482
7.48694e-07
0.000103287
7.55478e-07
0.000103091
7.63659e-07
0.000102893
7.73512e-07
0.000102693
7.85405e-07
0.00010249
7.99824e-07
0.000102284
8.17384e-07
0.000102072
8.38871e-07
0.000101856
8.65267e-07
0.000101631
8.97805e-07
0.000101398
9.38027e-07
0.000101154
9.87871e-07
0.000100896
1.04978e-06
0.000100621
1.12686e-06
0.000100324
1.22307e-06
0.000100003
1.3435e-06
9.96495e-05
1.49475e-06
9.92587e-05
1.68543e-06
9.88226e-05
1.92687e-06
9.83333e-05
2.23401e-06
9.77824e-05
2.62662e-06
9.71636e-05
3.13073e-06
9.64747e-05
3.78017e-06
9.57243e-05
4.61757e-06
9.49415e-05
5.69319e-06
9.41927e-05
7.05798e-06
9.36057e-05
8.74394e-06
9.33973e-05
1.07194e-05
9.38599e-05
1.27977e-05
1.44886e-05
9.51305e-05
0.00012185
1.0465e-06
0.000121509
1.76122e-06
0.000121162
1.63605e-06
0.000120887
1.16811e-06
0.000120677
8.3134e-07
0.000120498
7.09941e-07
0.000120325
7.12726e-07
0.000120148
7.54999e-07
0.000119966
7.97142e-07
0.000119779
8.28855e-07
0.000119587
8.51172e-07
0.000119393
8.6746e-07
0.000119196
8.80478e-07
0.000118997
8.91889e-07
0.000118795
9.026e-07
0.000118592
9.13028e-07
0.000118386
9.23356e-07
0.000118179
9.33656e-07
0.000117969
9.43904e-07
0.000117757
9.53993e-07
0.000117543
9.63765e-07
0.000117327
9.73009e-07
0.00011711
9.81486e-07
0.000116891
9.88977e-07
0.000116671
9.95288e-07
0.000116449
1.00027e-06
0.000116227
1.00382e-06
0.000116005
1.00588e-06
0.000115782
1.00646e-06
0.00011556
1.00561e-06
0.000115338
1.00346e-06
0.000115117
1.00015e-06
0.000114896
9.95859e-07
0.000114677
9.90796e-07
0.000114459
9.85179e-07
0.000114243
9.79238e-07
0.000114028
9.73192e-07
0.000113814
9.67248e-07
0.000113602
9.61596e-07
0.000113391
9.56408e-07
0.000113182
9.5184e-07
0.000112974
9.48019e-07
0.000112767
9.45052e-07
0.00011256
9.43015e-07
0.000112355
9.41959e-07
0.000112151
9.41917e-07
0.000111947
9.42918e-07
0.000111743
9.44983e-07
0.000111539
9.48141e-07
0.000111336
9.5243e-07
0.000111132
9.57917e-07
0.000110928
9.64709e-07
0.000110723
9.72969e-07
0.000110516
9.82936e-07
0.000110309
9.94944e-07
0.0001101
1.00944e-06
0.000109888
1.027e-06
0.000109673
1.04838e-06
0.000109455
1.07449e-06
0.000109231
1.1065e-06
0.000109001
1.14585e-06
0.000108764
1.19431e-06
0.000108517
1.25409e-06
0.000108259
1.32792e-06
0.000107988
1.41921e-06
0.0001077
1.53222e-06
0.000107393
1.67229e-06
0.000107064
1.84613e-06
0.00010671
2.0622e-06
0.000106329
2.33114e-06
0.000105921
2.66636e-06
0.000105487
3.08449e-06
0.000105036
3.6059e-06
0.000104586
4.25469e-06
0.000104171
5.05758e-06
0.000103849
6.0404e-06
0.000103713
7.21963e-06
0.000103897
8.5853e-06
0.000104571
1.00712e-05
0.000105884
1.15107e-05
1.25961e-05
0.000107802
0.000130429
1.19362e-06
0.000130116
2.07478e-06
0.000129769
1.98276e-06
0.000129472
1.46489e-06
0.000129234
1.07014e-06
0.000129028
9.1509e-07
0.000128835
9.06044e-07
0.000128643
9.47598e-07
0.000128447
9.92769e-07
0.000128248
1.02801e-06
0.000128045
1.05343e-06
0.000127841
1.07233e-06
0.000127633
1.08764e-06
0.000127424
1.10118e-06
0.000127213
1.11395e-06
0.000126999
1.12643e-06
0.000126784
1.13879e-06
0.000126567
1.15114e-06
0.000126347
1.16343e-06
0.000126126
1.17554e-06
0.000125902
1.18728e-06
0.000125677
1.19839e-06
0.00012545
1.20862e-06
0.000125222
1.21769e-06
0.000124992
1.22537e-06
0.000124761
1.2315e-06
0.000124529
1.23594e-06
0.000124297
1.23864e-06
0.000124065
1.23959e-06
0.000123832
1.23886e-06
0.0001236
1.23659e-06
0.000123369
1.23294e-06
0.000123138
1.22813e-06
0.000122908
1.22239e-06
0.00012268
1.21599e-06
0.000122452
1.20917e-06
0.000122226
1.20222e-06
0.000122001
1.19535e-06
0.000121778
1.18881e-06
0.000121556
1.18279e-06
0.000121335
1.17748e-06
0.000121115
1.17301e-06
0.000120896
1.16953e-06
0.000120679
1.1671e-06
0.000120462
1.1658e-06
0.000120246
1.16567e-06
0.000120031
1.16672e-06
0.000119816
1.16899e-06
0.000119602
1.17251e-06
0.000119388
1.17732e-06
0.000119174
1.1835e-06
0.00011896
1.19116e-06
0.000118746
1.2005e-06
0.000118531
1.21179e-06
0.000118316
1.22542e-06
0.000118099
1.24187e-06
0.000117881
1.26182e-06
0.00011766
1.28609e-06
0.000117437
1.31571e-06
0.00011721
1.35195e-06
0.000116979
1.39636e-06
0.000116743
1.45083e-06
0.0001165
1.51767e-06
0.00011625
1.59968e-06
0.000115991
1.70027e-06
0.000115722
1.82358e-06
0.000115443
1.97463e-06
0.000115154
2.15952e-06
0.000114855
2.38555e-06
0.000114549
2.66147e-06
0.000114243
2.99755e-06
0.000113948
3.40555e-06
0.000113681
3.89844e-06
0.000113473
4.48943e-06
0.000113367
5.19011e-06
0.000113427
6.00657e-06
0.000113741
6.93281e-06
0.000114413
7.93998e-06
0.00011555
8.96153e-06
0.000117211
9.87789e-06
1.05144e-05
0.00011932
0.00013961
1.30675e-06
0.00013933
2.35469e-06
0.000138989
2.32355e-06
0.000138673
1.78115e-06
0.000138405
1.3379e-06
0.000138173
1.14734e-06
0.000137958
1.12113e-06
0.000137748
1.15723e-06
0.000137539
1.20228e-06
0.000137327
1.23921e-06
0.000137114
1.2667e-06
0.000136899
1.28765e-06
0.000136681
1.30491e-06
0.000136462
1.32036e-06
0.000136241
1.33502e-06
0.000136018
1.34939e-06
0.000135793
1.36368e-06
0.000135567
1.37796e-06
0.000135338
1.39218e-06
0.000135107
1.40621e-06
0.000134875
1.41982e-06
0.000134641
1.43274e-06
0.000134405
1.44466e-06
0.000134168
1.45528e-06
0.000133929
1.46434e-06
0.000133689
1.47164e-06
0.000133449
1.47706e-06
0.000133207
1.48049e-06
0.000132966
1.48196e-06
0.000132724
1.48152e-06
0.000132483
1.47932e-06
0.000132241
1.47555e-06
0.000132001
1.47045e-06
0.000131761
1.46428e-06
0.000131522
1.45732e-06
0.000131284
1.44987e-06
0.000131047
1.44223e-06
0.000130811
1.43465e-06
0.000130576
1.42739e-06
0.000130343
1.42068e-06
0.00013011
1.41472e-06
0.000129879
1.40968e-06
0.00012965
1.4057e-06
0.000129421
1.40286e-06
0.000129193
1.40123e-06
0.000128966
1.40087e-06
0.00012874
1.40179e-06
0.000128515
1.40402e-06
0.000128291
1.40759e-06
0.000128067
1.41255e-06
0.000127844
1.41896e-06
0.000127621
1.42698e-06
0.000127399
1.43679e-06
0.000127177
1.44869e-06
0.000126955
1.46309e-06
0.000126733
1.48054e-06
0.000126511
1.50172e-06
0.000126288
1.5275e-06
0.000126064
1.55896e-06
0.000125838
1.5974e-06
0.000125611
1.64436e-06
0.000125382
1.70173e-06
0.00012515
1.77172e-06
0.000124915
1.85698e-06
0.000124679
1.9606e-06
0.00012444
2.08623e-06
0.000124201
2.23811e-06
0.000123965
2.4211e-06
0.000123736
2.64074e-06
0.00012352
2.90315e-06
0.00012333
3.21483e-06
0.00012318
3.58237e-06
0.000123094
4.01166e-06
0.000123105
4.5068e-06
0.000123255
5.06826e-06
0.0001236
5.69007e-06
0.000124205
6.35583e-06
0.00012514
7.03369e-06
0.00012646
7.67104e-06
0.000128175
8.19217e-06
8.50518e-06
0.000130213
0.000149429
1.38731e-06
0.000149185
2.59859e-06
0.000148855
2.65391e-06
0.000148523
2.11267e-06
0.000148229
1.63239e-06
0.00014797
1.40622e-06
0.000147733
1.35838e-06
0.000147506
1.38451e-06
0.000147282
1.42618e-06
0.000147058
1.46278e-06
0.000146834
1.49115e-06
0.000146608
1.51343e-06
0.000146381
1.5322e-06
0.000146152
1.54923e-06
0.000145921
1.56554e-06
0.000145689
1.58162e-06
0.000145455
1.59766e-06
0.000145219
1.61372e-06
0.000144982
1.62974e-06
0.000144743
1.64555e-06
0.000144502
1.66093e-06
0.000144259
1.67555e-06
0.000144015
1.68908e-06
0.000143769
1.7012e-06
0.000143522
1.71162e-06
0.000143274
1.72013e-06
0.000143025
1.72658e-06
0.000142775
1.73087e-06
0.000142525
1.73299e-06
0.000142275
1.73302e-06
0.000142024
1.73112e-06
0.000141774
1.72748e-06
0.000141523
1.72236e-06
0.000141274
1.71602e-06
0.000141025
1.70879e-06
0.000140776
1.70098e-06
0.000140529
1.69289e-06
0.000140282
1.68481e-06
0.000140037
1.67702e-06
0.000139793
1.66977e-06
0.000139549
1.66327e-06
0.000139307
1.6577e-06
0.000139067
1.6532e-06
0.000138827
1.64988e-06
0.000138588
1.64779e-06
0.000138351
1.64699e-06
0.000138115
1.64749e-06
0.00013788
1.64932e-06
0.000137647
1.6525e-06
0.000137415
1.65707e-06
0.000137184
1.6631e-06
0.000136954
1.67073e-06
0.000136726
1.68015e-06
0.000136498
1.69168e-06
0.000136273
1.70571e-06
0.000136048
1.72279e-06
0.000135825
1.74362e-06
0.000135603
1.76906e-06
0.000135382
1.80013e-06
0.000135162
1.83809e-06
0.000134944
1.88438e-06
0.000134728
1.94072e-06
0.000134514
2.00907e-06
0.000134303
2.09168e-06
0.000134098
2.19111e-06
0.000133899
2.31021e-06
0.000133712
2.45212e-06
0.000133539
2.62019e-06
0.00013339
2.81789e-06
0.000133272
3.04861e-06
0.0001332
3.31531e-06
0.000133191
3.6201e-06
0.000133268
3.96348e-06
0.000133461
4.34341e-06
0.000133805
4.75403e-06
0.000134341
5.18411e-06
0.000135112
5.61534e-06
0.000136155
6.02077e-06
0.000137493
6.36419e-06
0.000139114
6.60194e-06
6.68913e-06
0.000140961
0.00015993
1.43952e-06
0.000159721
2.80741e-06
0.000159405
2.97053e-06
0.000159063
2.45435e-06
0.000158746
1.94966e-06
0.000158462
1.68974e-06
0.000158203
1.61723e-06
0.000157958
1.62951e-06
0.00015772
1.66473e-06
0.000157484
1.69893e-06
0.000157248
1.72688e-06
0.000157012
1.74967e-06
0.000156774
1.76941e-06
0.000156536
1.78764e-06
0.000156296
1.80532e-06
0.000156055
1.82286e-06
0.000155812
1.84044e-06
0.000155568
1.8581e-06
0.000155322
1.87575e-06
0.000155074
1.8932e-06
0.000154825
1.91019e-06
0.000154575
1.92639e-06
0.000154322
1.94144e-06
0.000154069
1.955e-06
0.000153814
1.96676e-06
0.000153558
1.9765e-06
0.000153301
1.98403e-06
0.000153044
1.98928e-06
0.000152785
1.99222e-06
0.000152527
1.99293e-06
0.000152267
1.99155e-06
0.000152008
1.9883e-06
0.000151749
1.98342e-06
0.00015149
1.97721e-06
0.000151231
1.96999e-06
0.000150973
1.96208e-06
0.000150716
1.95379e-06
0.000150459
1.94543e-06
0.000150203
1.93729e-06
0.000149948
1.92962e-06
0.000149694
1.92264e-06
0.000149442
1.91654e-06
0.000149191
1.91147e-06
0.000148941
1.90751e-06
0.000148692
1.90474e-06
0.000148446
1.90319e-06
0.000148201
1.90288e-06
0.000147957
1.90382e-06
0.000147716
1.90601e-06
0.000147476
1.90949e-06
0.000147239
1.91431e-06
0.000147004
1.92059e-06
0.000146771
1.92851e-06
0.000146542
1.93836e-06
0.000146314
1.95053e-06
0.00014609
1.96553e-06
0.00014587
1.984e-06
0.000145652
2.00674e-06
0.000145439
2.03467e-06
0.000145231
2.0689e-06
0.000145028
2.11067e-06
0.000144831
2.1614e-06
0.000144642
2.22267e-06
0.000144464
2.29619e-06
0.000144297
2.3838e-06
0.000144147
2.48742e-06
0.000144018
2.60896e-06
0.000143916
2.75022e-06
0.00014385
2.91274e-06
0.000143831
3.0975e-06
0.000143871
3.30471e-06
0.000143989
3.53326e-06
0.000144203
3.78031e-06
0.000144537
4.04062e-06
0.000145016
4.30593e-06
0.000145668
4.56436e-06
0.000146515
4.8001e-06
0.000147574
4.99353e-06
0.000148849
5.12226e-06
0.00015032
5.16341e-06
5.0975e-06
0.000151944
0.000171159
1.46899e-06
0.000170982
2.98431e-06
0.000170681
3.27138e-06
0.000170334
2.80108e-06
0.000169999
2.2849e-06
0.000169694
1.9949e-06
0.000169415
1.89628e-06
0.000169152
1.89182e-06
0.000168899
1.91793e-06
0.00016865
1.94776e-06
0.000168403
1.97396e-06
0.000168157
1.99636e-06
0.00016791
2.01645e-06
0.000167662
2.03545e-06
0.000167413
2.05413e-06
0.000167163
2.07286e-06
0.000166912
2.09176e-06
0.000166659
2.1108e-06
0.000166405
2.12989e-06
0.00016615
2.14881e-06
0.000165893
2.16727e-06
0.000165634
2.18492e-06
0.000165375
2.20139e-06
0.000165113
2.21632e-06
0.000164851
2.22939e-06
0.000164588
2.24037e-06
0.000164323
2.24905e-06
0.000164058
2.25536e-06
0.000163792
2.25926e-06
0.000163525
2.26083e-06
0.000163258
2.2602e-06
0.00016299
2.25759e-06
0.000162722
2.25323e-06
0.000162455
2.24741e-06
0.000162187
2.24046e-06
0.000161919
2.23269e-06
0.000161652
2.22443e-06
0.000161386
2.21597e-06
0.00016112
2.2076e-06
0.000160855
2.19958e-06
0.000160592
2.19213e-06
0.00016033
2.18543e-06
0.000160069
2.17962e-06
0.00015981
2.1748e-06
0.000159553
2.17102e-06
0.000159297
2.1683e-06
0.000159045
2.16665e-06
0.000158794
2.16605e-06
0.000158546
2.16649e-06
0.000158301
2.16797e-06
0.00015806
2.17053e-06
0.000157822
2.17425e-06
0.000157588
2.17928e-06
0.000157358
2.18587e-06
0.000157133
2.19436e-06
0.000156913
2.20518e-06
0.000156699
2.2189e-06
0.000156491
2.23616e-06
0.00015629
2.25776e-06
0.000156098
2.28456e-06
0.000155916
2.31753e-06
0.000155745
2.35771e-06
0.000155588
2.40619e-06
0.000155447
2.46409e-06
0.000155326
2.53247e-06
0.00015523
2.6123e-06
0.000155163
2.70436e-06
0.000155134
2.80908e-06
0.000155151
2.92642e-06
0.000155224
3.05565e-06
0.000155365
3.19509e-06
0.000155589
3.34185e-06
0.00015591
3.49154e-06
0.000156345
3.63796e-06
0.000156911
3.77296e-06
0.000157623
3.88641e-06
0.00015849
3.96652e-06
0.000159517
4.00058e-06
0.000160697
3.97622e-06
0.000162012
3.88313e-06
3.71519e-06
0.000163428
0.000183166
1.48159e-06
0.000183017
3.13375e-06
0.000182733
3.55565e-06
0.000182386
3.14835e-06
0.000182037
2.63314e-06
0.000181714
2.31817e-06
0.000181417
2.19359e-06
0.000181138
2.17057e-06
0.00018087
2.18547e-06
0.000180609
2.20918e-06
0.000180351
2.23233e-06
0.000180094
2.25344e-06
0.000179837
2.27321e-06
0.00017958
2.29248e-06
0.000179322
2.3118e-06
0.000179064
2.33141e-06
0.000178804
2.35135e-06
0.000178543
2.37157e-06
0.000178281
2.39191e-06
0.000178018
2.41212e-06
0.000177754
2.4319e-06
0.000177488
2.45087e-06
0.000177221
2.46865e-06
0.000176953
2.48488e-06
0.000176683
2.49923e-06
0.000176413
2.51145e-06
0.000176141
2.52134e-06
0.000175868
2.5288e-06
0.000175595
2.5338e-06
0.000175321
2.5364e-06
0.000175045
2.53672e-06
0.00017477
2.53496e-06
0.000174494
2.53134e-06
0.000174217
2.52615e-06
0.000173941
2.51969e-06
0.000173665
2.51225e-06
0.000173389
2.50415e-06
0.000173113
2.4957e-06
0.000172839
2.48715e-06
0.000172565
2.47876e-06
0.000172293
2.47076e-06
0.000172022
2.46329e-06
0.000171753
2.4565e-06
0.000171486
2.45046e-06
0.000171221
2.44522e-06
0.000170959
2.44076e-06
0.0001707
2.43708e-06
0.000170444
2.43413e-06
0.000170192
2.43185e-06
0.000169944
2.43022e-06
0.000169701
2.42924e-06
0.000169463
2.42894e-06
0.00016923
2.42943e-06
0.000169004
2.43088e-06
0.000168784
2.43356e-06
0.000168572
2.4378e-06
0.000168369
2.44403e-06
0.000168175
2.45275e-06
0.000167992
2.46452e-06
0.000167821
2.47994e-06
0.000167665
2.49966e-06
0.000167525
2.5243e-06
0.000167404
2.55445e-06
0.000167306
2.59061e-06
0.000167235
2.63314e-06
0.000167195
2.68219e-06
0.000167192
2.73758e-06
0.000167234
2.79874e-06
0.000167328
2.86456e-06
0.000167483
2.93325e-06
0.000167709
3.0022e-06
0.000168016
3.06784e-06
0.000168416
3.12552e-06
0.000168919
3.16949e-06
0.000169534
3.19295e-06
0.000170268
3.18833e-06
0.000171122
3.14779e-06
0.000172094
3.06404e-06
0.000173174
2.93136e-06
0.000174347
2.74675e-06
2.51094e-06
0.000175587
0.000196009
1.48264e-06
0.000195882
3.26066e-06
0.000195614
3.82357e-06
0.00019527
3.49253e-06
0.000194913
2.98975e-06
0.000194576
2.65584e-06
0.000194262
2.50684e-06
0.000193968
2.46453e-06
0.000193687
2.46675e-06
0.000193413
2.48291e-06
0.000193144
2.50183e-06
0.000192877
2.52074e-06
0.00019261
2.53951e-06
0.000192344
2.55854e-06
0.000192078
2.57809e-06
0.000191811
2.59826e-06
0.000191544
2.61899e-06
0.000191275
2.64016e-06
0.000191005
2.66154e-06
0.000190735
2.68288e-06
0.000190463
2.70382e-06
0.00019019
2.72399e-06
0.000189916
2.74298e-06
0.000189641
2.76044e-06
0.000189364
2.77604e-06
0.000189087
2.7895e-06
0.000188808
2.80064e-06
0.000188529
2.80933e-06
0.000188248
2.81554e-06
0.000187966
2.81931e-06
0.000187684
2.82074e-06
0.0001874
2.82e-06
0.000187117
2.81729e-06
0.000186832
2.81288e-06
0.000186548
2.80702e-06
0.000186264
2.80001e-06
0.00018598
2.79215e-06
0.000185696
2.78369e-06
0.000185414
2.77491e-06
0.000185132
2.76603e-06
0.000184852
2.75726e-06
0.000184574
2.74874e-06
0.000184298
2.74058e-06
0.000184025
2.73284e-06
0.000183755
2.72552e-06
0.000183488
2.7186e-06
0.000183225
2.71202e-06
0.000182966
2.7057e-06
0.000182712
2.69954e-06
0.000182464
2.69348e-06
0.000182222
2.68744e-06
0.000181987
2.68143e-06
0.000181759
2.67547e-06
0.00018154
2.66966e-06
0.00018133
2.66417e-06
0.00018113
2.6592e-06
0.000180942
2.65502e-06
0.000180766
2.65194e-06
0.000180605
2.65029e-06
0.000180461
2.65039e-06
0.000180335
2.65253e-06
0.00018023
2.65695e-06
0.00018015
2.66375e-06
0.000180097
2.67293e-06
0.000180076
2.68425e-06
0.000180093
2.69724e-06
0.000180151
2.71107e-06
0.000180258
2.72454e-06
0.00018042
2.73596e-06
0.000180645
2.7431e-06
0.000180938
2.74311e-06
0.000181309
2.73252e-06
0.000181763
2.70721e-06
0.000182306
2.66251e-06
0.000182942
2.59338e-06
0.000183672
2.49474e-06
0.000184495
2.36195e-06
0.000185405
2.19155e-06
0.000186392
1.982e-06
0.000187441
1.73439e-06
1.45291e-06
0.000188537
0.000209745
1.47667e-06
0.000209636
3.36997e-06
0.000209383
4.07616e-06
0.000209045
3.83105e-06
0.000208684
3.35071e-06
0.000208336
3.0043e-06
0.000208009
2.83351e-06
0.000207701
2.77215e-06
0.000207407
2.7609e-06
0.000207122
2.76843e-06
0.000206841
2.78213e-06
0.000206564
2.798e-06
0.000206288
2.81512e-06
0.000206014
2.83338e-06
0.000205739
2.85276e-06
0.000205464
2.87315e-06
0.000205189
2.8944e-06
0.000204913
2.91629e-06
0.000204636
2.93853e-06
0.000204358
2.96082e-06
0.000204079
2.98279e-06
0.000203799
3.00403e-06
0.000203518
3.02415e-06
0.000203236
3.04278e-06
0.000202953
3.05959e-06
0.000202669
3.0743e-06
0.000202384
3.08671e-06
0.000202097
3.09668e-06
0.00020181
3.10418e-06
0.000201521
3.1092e-06
0.000201232
3.11182e-06
0.000200941
3.11219e-06
0.00020065
3.11046e-06
0.000200359
3.10687e-06
0.000200067
3.10165e-06
0.000199776
3.09505e-06
0.000199485
3.08734e-06
0.000199195
3.07877e-06
0.000198905
3.06956e-06
0.000198617
3.05994e-06
0.000198331
3.05005e-06
0.000198048
3.04004e-06
0.000197767
3.02997e-06
0.000197489
3.01987e-06
0.000197216
3.0097e-06
0.000196946
2.99941e-06
0.000196682
2.98887e-06
0.000196423
2.97797e-06
0.00019617
2.96656e-06
0.000195925
2.95452e-06
0.000195688
2.94174e-06
0.000195459
2.92812e-06
0.00019524
2.91363e-06
0.000195031
2.89828e-06
0.000194835
2.8821e-06
0.000194652
2.86518e-06
0.000194483
2.84762e-06
0.00019433
2.82951e-06
0.000194195
2.81097e-06
0.00019408
2.79203e-06
0.000193988
2.77267e-06
0.000193922
2.75279e-06
0.000193883
2.73213e-06
0.000193877
2.71026e-06
0.000193906
2.68655e-06
0.000193976
2.66012e-06
0.000194091
2.62981e-06
0.000194255
2.59411e-06
0.000194475
2.55118e-06
0.000194755
2.49879e-06
0.0001951
2.43434e-06
0.000195514
2.35487e-06
0.000196001
2.25713e-06
0.000196563
2.13772e-06
0.000197201
1.99324e-06
0.000197914
1.82065e-06
0.000198697
1.61768e-06
0.000199544
1.38339e-06
0.000200446
1.11874e-06
0.000201392
8.27112e-07
5.14267e-07
0.00020237
0.00022444
1.46727e-06
0.000224344
3.46633e-06
0.000224105
4.31498e-06
0.000223774
4.16227e-06
0.000223412
3.7127e-06
0.000223056
3.36021e-06
0.000222718
3.17099e-06
0.000222399
3.09164e-06
0.000222093
3.06676e-06
0.000221796
3.065e-06
0.000221506
3.07269e-06
0.000221219
3.08481e-06
0.000220934
3.09968e-06
0.000220651
3.11668e-06
0.000220369
3.13548e-06
0.000220086
3.15578e-06
0.000219803
3.17728e-06
0.00021952
3.19966e-06
0.000219236
3.22257e-06
0.000218951
3.24566e-06
0.000218666
3.26852e-06
0.000218379
3.29073e-06
0.000218092
3.31189e-06
0.000217803
3.33163e-06
0.000217514
3.34961e-06
0.000217223
3.36555e-06
0.000216931
3.37923e-06
0.000216638
3.39051e-06
0.000216344
3.3993e-06
0.000216049
3.40559e-06
0.000215753
3.40941e-06
0.000215456
3.41086e-06
0.000215159
3.41007e-06
0.000214862
3.40723e-06
0.000214564
3.40252e-06
0.000214266
3.39617e-06
0.00021397
3.38841e-06
0.000213674
3.37944e-06
0.00021338
3.36948e-06
0.000213087
3.35868e-06
0.000212797
3.34719e-06
0.00021251
3.33509e-06
0.000212226
3.3224e-06
0.000211947
3.3091e-06
0.000211672
3.29513e-06
0.000211403
3.28035e-06
0.00021114
3.26461e-06
0.000210884
3.24774e-06
0.000210637
3.22954e-06
0.000210397
3.20984e-06
0.000210168
3.18844e-06
0.00020995
3.1652e-06
0.000209743
3.14001e-06
0.00020955
3.11275e-06
0.000209371
3.08337e-06
0.000209207
3.0518e-06
0.000209062
3.01797e-06
0.000208935
2.98182e-06
0.00020883
2.94323e-06
0.000208748
2.90201e-06
0.000208691
2.8579e-06
0.000208664
2.81052e-06
0.000208668
2.75935e-06
0.000208706
2.70372e-06
0.000208783
2.64278e-06
0.000208901
2.57546e-06
0.000209065
2.50048e-06
0.000209278
2.41635e-06
0.000209544
2.32134e-06
0.000209866
2.21352e-06
0.000210247
2.09076e-06
0.000210689
1.9508e-06
0.000211193
1.79131e-06
0.00021176
1.61004e-06
0.000212388
1.40496e-06
0.000213073
1.17457e-06
0.000213813
9.18195e-07
0.0002146
6.36467e-07
0.000215427
3.3191e-07
0.000216286
9.14937e-09
-3.25084e-07
0.000217165
0.000240161
1.45724e-06
0.000240073
3.55386e-06
0.000239846
4.54194e-06
0.000239523
4.4853e-06
0.000239163
4.07308e-06
0.000238803
3.72053e-06
0.000238457
3.51667e-06
0.000238128
3.42104e-06
0.000237812
3.38292e-06
0.000237505
3.3716e-06
0.000237205
3.37276e-06
0.000236909
3.38057e-06
0.000236616
3.39266e-06
0.000236325
3.40797e-06
0.000236035
3.42583e-06
0.000235745
3.44573e-06
0.000235455
3.46722e-06
0.000235165
3.48988e-06
0.000234874
3.51329e-06
0.000234583
3.53702e-06
0.000234291
3.56065e-06
0.000233998
3.58373e-06
0.000233704
3.60586e-06
0.00023341
3.62665e-06
0.000233114
3.64575e-06
0.000232817
3.66287e-06
0.000232519
3.67778e-06
0.000232221
3.69031e-06
0.000231921
3.70033e-06
0.00023162
3.7078e-06
0.000231318
3.71271e-06
0.000231016
3.7151e-06
0.000230713
3.71507e-06
0.000230411
3.71276e-06
0.000230108
3.70831e-06
0.000229806
3.7019e-06
0.000229505
3.69372e-06
0.000229206
3.68394e-06
0.000228909
3.67271e-06
0.000228614
3.66016e-06
0.000228322
3.64638e-06
0.000228034
3.6314e-06
0.00022775
3.61519e-06
0.000227471
3.59769e-06
0.000227199
3.57877e-06
0.000226933
3.55824e-06
0.000226675
3.53591e-06
0.000226426
3.51155e-06
0.000226186
3.4849e-06
0.000225957
3.45572e-06
0.000225739
3.42378e-06
0.000225535
3.38887e-06
0.000225344
3.35077e-06
0.000225169
3.30931e-06
0.000225011
3.2643e-06
0.000224872
3.21556e-06
0.000224752
3.16289e-06
0.000224654
3.10605e-06
0.00022458
3.04477e-06
0.000224533
2.9787e-06
0.000224513
2.90739e-06
0.000224524
2.83031e-06
0.000224569
2.74679e-06
0.000224649
2.65606e-06
0.000224769
2.5572e-06
0.00022493
2.44913e-06
0.000225135
2.33067e-06
0.000225387
2.20049e-06
0.000225689
2.05717e-06
0.000226041
1.89918e-06
0.000226445
1.72496e-06
0.000226902
1.53295e-06
0.000227411
1.32166e-06
0.000227972
1.08977e-06
0.000228581
8.36288e-07
0.000229235
5.60758e-07
0.000229931
2.63673e-07
0.000230662
-5.32592e-08
0.000231422
-3.86669e-07
0.000232204
-7.31406e-07
-1.08061e-06
0.000233002
0.000256981
1.44857e-06
0.000256899
3.63604e-06
0.000256682
4.75904e-06
0.000256367
4.79983e-06
0.00025601
4.42988e-06
0.000255648
4.08259e-06
0.000255297
3.86797e-06
0.00025496
3.75825e-06