/*--------------------------------*- C++ -*----------------------------------*\
| =========                 |                                                 |
| \\      /  F ield         | OpenFOAM: The Open Source CFD Toolbox           |
|  \\    /   O peration     | Version:  2106                                  |
|   \\  /    A nd           | Website:  www.openfoam.com                      |
|    \\/     M anipulation  |                                                 |
\*---------------------------------------------------------------------------*/
FoamFile
{
    version     2.0;
    format      ascii;
    arch        "LSB;label=32;scalar=64";
    class       volScalarField;
    location    "0.19";
    object      T;
}
// * * * * * * * * * * * * * * * * * * * * * * * * * * * * * * * * * * * * * //

dimensions      [0 0 0 1 0 0 0];

internalField   nonuniform List<scalar> 
12013
(
300
300
300
300
300
300
300
300
300
300
300
300
300
300
300
300
300
300
300
300
300
300
300
300
300
300
300.001
300.001
300.001
300.002
300.002
300.003
300.003
300.004
300.005
300.006
300.008
300.009
300.011
300.014
300.016
300.019
300.023
300.027
300.031
300.036
300.042
300.049
300.056
300.064
300.072
300.082
300.093
300.105
300.118
300.132
300.147
300.163
300.181
300.201
300.222
300.244
300.269
300.295
300.323
300.353
300.385
300.419
300.456
300.496
300.538
300.584
300.633
300.686
300.743
300.806
300.875
300.951
301.038
301.139
301.262
300
300
300
300
300
300
300
300
300
300
300
300
300
300
300
300
300
300
300
300
300
300
300
300
300
300
300.001
300.001
300.001
300.002
300.002
300.003
300.003
300.004
300.005
300.006
300.008
300.009
300.011
300.014
300.016
300.019
300.023
300.027
300.031
300.036
300.042
300.048
300.056
300.064
300.072
300.082
300.093
300.105
300.117
300.131
300.147
300.163
300.181
300.2
300.221
300.244
300.268
300.294
300.322
300.352
300.384
300.418
300.455
300.494
300.537
300.582
300.631
300.683
300.74
300.801
300.869
300.943
301.025
301.118
301.222
300
300
300
300
300
300
300
300
300
300
300
300
300
300
300
300
300
300
300
300
300
300
300
300
300
300
300.001
300.001
300.001
300.002
300.002
300.003
300.003
300.004
300.005
300.006
300.008
300.009
300.011
300.014
300.016
300.019
300.023
300.027
300.031
300.036
300.042
300.048
300.055
300.063
300.072
300.082
300.093
300.104
300.117
300.131
300.146
300.163
300.181
300.2
300.221
300.243
300.267
300.293
300.321
300.35
300.382
300.416
300.453
300.492
300.533
300.578
300.626
300.677
300.732
300.792
300.857
300.927
301.003
301.084
301.171
300
300
300
300
300
300
300
300
300
300
300
300
300
300
300
300
300
300
300
300
300
300
300
300
300
300
300.001
300.001
300.001
300.002
300.002
300.003
300.003
300.004
300.005
300.006
300.008
300.009
300.011
300.014
300.016
300.019
300.023
300.027
300.031
300.036
300.042
300.048
300.055
300.063
300.072
300.082
300.092
300.104
300.116
300.13
300.145
300.162
300.18
300.199
300.219
300.242
300.265
300.291
300.318
300.348
300.379
300.413
300.449
300.487
300.528
300.571
300.618
300.668
300.721
300.778
300.838
300.903
300.971
301.043
301.116
300
300
300
300
300
300
300
300
300
300
300
300
300
300
300
300
300
300
300
300
300
300
300
300
300
300
300.001
300.001
300.001
300.002
300.002
300.003
300.003
300.004
300.005
300.006
300.008
300.009
300.011
300.013
300.016
300.019
300.023
300.026
300.031
300.036
300.042
300.048
300.055
300.063
300.071
300.081
300.092
300.103
300.116
300.129
300.144
300.161
300.178
300.197
300.217
300.239
300.263
300.288
300.315
300.344
300.375
300.408
300.443
300.48
300.52
300.562
300.607
300.654
300.705
300.758
300.814
300.873
300.934
300.997
301.059
300
300
300
300
300
300
300
300
300
300
300
300
300
300
300
300
300
300
300
300
300
300
300
300
300
300
300.001
300.001
300.001
300.002
300.002
300.003
300.003
300.004
300.005
300.006
300.008
300.009
300.011
300.013
300.016
300.019
300.022
300.026
300.031
300.036
300.041
300.047
300.054
300.062
300.071
300.08
300.091
300.102
300.115
300.128
300.143
300.159
300.176
300.195
300.215
300.236
300.26
300.284
300.311
300.339
300.369
300.401
300.435
300.471
300.509
300.549
300.592
300.637
300.684
300.734
300.785
300.839
300.893
300.948
301.002
300
300
300
300
300
300
300
300
300
300
300
300
300
300
300
300
300
300
300
300
300
300
300
300
300
300
300.001
300.001
300.001
300.002
300.002
300.003
300.003
300.004
300.005
300.006
300.008
300.009
300.011
300.013
300.016
300.019
300.022
300.026
300.03
300.035
300.041
300.047
300.054
300.062
300.07
300.079
300.09
300.101
300.113
300.126
300.141
300.157
300.174
300.192
300.211
300.233
300.255
300.279
300.305
300.332
300.361
300.392
300.425
300.459
300.496
300.534
300.574
300.616
300.66
300.706
300.752
300.8
300.849
300.897
300.944
300
300
300
300
300
300
300
300
300
300
300
300
300
300
300
300
300
300
300
300
300
300
300
300
300
300
300.001
300.001
300.001
300.002
300.002
300.003
300.003
300.004
300.005
300.006
300.007
300.009
300.011
300.013
300.016
300.019
300.022
300.026
300.03
300.035
300.04
300.046
300.053
300.061
300.069
300.078
300.088
300.099
300.111
300.124
300.138
300.154
300.17
300.188
300.207
300.228
300.25
300.273
300.298
300.324
300.352
300.382
300.413
300.445
300.48
300.516
300.553
300.592
300.632
300.674
300.716
300.759
300.802
300.845
300.886
300
300
300
300
300
300
300
300
300
300
300
300
300
300
300
300
300
300
300
300
300
300
300
300
300
300
300.001
300.001
300.001
300.001
300.002
300.002
300.003
300.004
300.005
300.006
300.007
300.009
300.011
300.013
300.015
300.018
300.022
300.025
300.029
300.034
300.04
300.046
300.052
300.06
300.068
300.077
300.086
300.097
300.109
300.122
300.135
300.15
300.166
300.184
300.202
300.222
300.243
300.265
300.289
300.314
300.341
300.369
300.398
300.429
300.461
300.495
300.529
300.565
300.602
300.639
300.677
300.715
300.753
300.791
300.828
300
300
300
300
300
300
300
300
300
300
300
300
300
300
300
300
300
300
300
300
300
300
300
300
300
300
300.001
300.001
300.001
300.001
300.002
300.002
300.003
300.004
300.005
300.006
300.007
300.009
300.011
300.013
300.015
300.018
300.021
300.025
300.029
300.033
300.039
300.045
300.051
300.058
300.066
300.075
300.084
300.095
300.106
300.118
300.132
300.146
300.162
300.178
300.196
300.215
300.235
300.256
300.279
300.303
300.328
300.354
300.382
300.41
300.44
300.471
300.502
300.535
300.568
300.602
300.636
300.67
300.704
300.737
300.77
300
300
300
300
300
300
300
300
300
300
300
300
300
300
300
300
300
300
300
300
300
300
300
300
300
300
300.001
300.001
300.001
300.001
300.002
300.002
300.003
300.004
300.005
300.006
300.007
300.009
300.01
300.012
300.015
300.017
300.021
300.024
300.028
300.033
300.038
300.043
300.05
300.057
300.064
300.073
300.082
300.092
300.103
300.115
300.127
300.141
300.156
300.172
300.189
300.207
300.226
300.246
300.267
300.289
300.313
300.337
300.363
300.389
300.416
300.445
300.473
300.503
300.533
300.563
300.593
300.623
300.653
300.683
300.712
300
300
300
300
300
300
300
300
300
300
300
300
300
300
300
300
300
300
300
300
300
300
300
300
300
300
300.001
300.001
300.001
300.001
300.002
300.002
300.003
300.004
300.005
300.006
300.007
300.008
300.01
300.012
300.014
300.017
300.02
300.023
300.027
300.032
300.037
300.042
300.048
300.055
300.062
300.07
300.079
300.089
300.099
300.11
300.122
300.136
300.15
300.164
300.18
300.197
300.215
300.234
300.254
300.274
300.296
300.319
300.342
300.366
300.391
300.416
300.442
300.469
300.495
300.522
300.549
300.576
300.602
300.628
300.654
300
300
300
300
300
300
300
300
300
300
300
300
300
300
300
300
300
300
300
300
300
300
300
300
300
300
300.001
300.001
300.001
300.001
300.002
300.002
300.003
300.004
300.004
300.005
300.007
300.008
300.01
300.012
300.014
300.016
300.019
300.023
300.026
300.03
300.035
300.04
300.046
300.052
300.059
300.067
300.076
300.085
300.095
300.105
300.117
300.129
300.142
300.156
300.171
300.187
300.203
300.221
300.239
300.258
300.278
300.298
300.32
300.341
300.364
300.387
300.41
300.433
300.457
300.48
300.504
300.528
300.551
300.574
300.596
300
300
300
300
300
300
300
300
300
300
300
300
300
300
300
300
300
300
300
300
300
300
300
300
300
300
300.001
300.001
300.001
300.001
300.002
300.002
300.003
300.003
300.004
300.005
300.006
300.008
300.009
300.011
300.013
300.016
300.018
300.022
300.025
300.029
300.034
300.038
300.044
300.05
300.057
300.064
300.072
300.08
300.09
300.1
300.11
300.122
300.134
300.147
300.161
300.175
300.19
300.206
300.223
300.24
300.258
300.277
300.296
300.315
300.335
300.355
300.376
300.397
300.417
300.438
300.459
300.48
300.5
300.52
300.539
300
300
300
300
300
300
300
300
300
300
300
300
300
300
300
300
300
300
300
300
300
300
300
300
300
300
300
300.001
300.001
300.001
300.002
300.002
300.003
300.003
300.004
300.005
300.006
300.007
300.009
300.011
300.013
300.015
300.018
300.02
300.024
300.028
300.032
300.036
300.042
300.047
300.053
300.06
300.067
300.075
300.084
300.093
300.103
300.114
300.125
300.137
300.149
300.162
300.176
300.191
300.206
300.221
300.237
300.254
300.271
300.288
300.306
300.323
300.341
300.36
300.378
300.396
300.414
300.432
300.449
300.467
300.484
300
300
300
300
300
300
300
300
300
300
300
300
300
300
300
300
300
300
300
300
300
300
300
300
300
300
300
300.001
300.001
300.001
300.002
300.002
300.002
300.003
300.004
300.005
300.006
300.007
300.008
300.01
300.012
300.014
300.016
300.019
300.022
300.026
300.03
300.034
300.039
300.044
300.05
300.056
300.063
300.07
300.078
300.086
300.095
300.105
300.115
300.126
300.137
300.149
300.161
300.174
300.188
300.201
300.216
300.23
300.245
300.26
300.276
300.291
300.307
300.322
300.338
300.354
300.369
300.385
300.4
300.415
300.43
300
300
300
300
300
300
300
300
300
300
300
300
300
300
300
300
300
300
300
300
300
300
300
300
300
300
300
300.001
300.001
300.001
300.001
300.002
300.002
300.003
300.004
300.004
300.005
300.006
300.008
300.009
300.011
300.013
300.015
300.018
300.021
300.024
300.028
300.032
300.036
300.041
300.046
300.052
300.058
300.064
300.071
300.079
300.087
300.096
300.105
300.114
300.124
300.135
300.146
300.157
300.169
300.181
300.193
300.206
300.219
300.232
300.245
300.259
300.272
300.286
300.299
300.313
300.326
300.339
300.352
300.365
300.378
300
300
300
300
300
300
300
300
300
300
300
300
300
300
300
300
300
300
300
300
300
300
300
300
300
300
300
300.001
300.001
300.001
300.001
300.002
300.002
300.003
300.003
300.004
300.005
300.006
300.007
300.009
300.01
300.012
300.014
300.016
300.019
300.022
300.025
300.029
300.033
300.037
300.042
300.047
300.052
300.058
300.065
300.071
300.079
300.086
300.094
300.103
300.111
300.121
300.13
300.14
300.15
300.16
300.171
300.182
300.193
300.204
300.216
300.227
300.238
300.25
300.261
300.273
300.284
300.295
300.306
300.317
300.328
300
300
300
300
300
300
300
300
300
300
300
300
300
300
300
300
300
300
300
300
300
300
300
300
300
300
300
300
300.001
300.001
300.001
300.002
300.002
300.002
300.003
300.004
300.005
300.005
300.007
300.008
300.009
300.011
300.013
300.015
300.017
300.02
300.023
300.026
300.029
300.033
300.037
300.042
300.047
300.052
300.058
300.063
300.07
300.076
300.083
300.091
300.098
300.106
300.114
300.123
300.131
300.14
300.149
300.158
300.168
300.177
300.187
300.196
300.206
300.215
300.225
300.234
300.244
300.253
300.262
300.272
300.28
300
300
300
300
300
300
300
300
300
300
300
300
300
300
300
300
300
300
300
300
300
300
300
300
300
300
300
300
300.001
300.001
300.001
300.001
300.002
300.002
300.003
300.003
300.004
300.005
300.006
300.007
300.008
300.01
300.011
300.013
300.015
300.018
300.02
300.023
300.026
300.029
300.033
300.037
300.041
300.046
300.05
300.055
300.061
300.066
300.072
300.079
300.085
300.092
300.098
300.106
300.113
300.12
300.128
300.135
300.143
300.151
300.159
300.167
300.175
300.183
300.191
300.198
300.206
300.214
300.222
300.229
300.236
300
300
300
300
300
300
300
300
300
300
300
300
300
300
300
300
300
300
300
300
300
300
300
300
300
300
300
300
300
300.001
300.001
300.001
300.001
300.002
300.002
300.003
300.004
300.004
300.005
300.006
300.007
300.009
300.01
300.012
300.013
300.015
300.018
300.02
300.023
300.025
300.029
300.032
300.035
300.039
300.043
300.048
300.052
300.057
300.062
300.067
300.072
300.078
300.083
300.089
300.095
300.101
300.107
300.114
300.12
300.126
300.133
300.139
300.146
300.152
300.159
300.165
300.171
300.178
300.184
300.19
300.196
300
300
300
300
300
300
300
300
300
300
300
300
300
300
300
300
300
300
300
300
300
300
300
300
300
300
300
300
300
300.001
300.001
300.001
300.001
300.002
300.002
300.002
300.003
300.004
300.004
300.005
300.006
300.007
300.009
300.01
300.011
300.013
300.015
300.017
300.019
300.022
300.024
300.027
300.03
300.033
300.036
300.04
300.044
300.047
300.051
300.056
300.06
300.064
300.069
300.074
300.079
300.084
300.089
300.094
300.099
300.104
300.109
300.114
300.119
300.124
300.129
300.135
300.14
300.145
300.149
300.154
300.159
300
300
300
300
300
300
300
300
300
300
300
300
300
300
300
300
300
300
300
300
300
300
300
300
300
300
300
300
300
300
300.001
300.001
300.001
300.001
300.002
300.002
300.003
300.003
300.004
300.004
300.005
300.006
300.007
300.008
300.01
300.011
300.012
300.014
300.016
300.018
300.02
300.022
300.025
300.027
300.03
300.033
300.036
300.039
300.042
300.045
300.049
300.052
300.056
300.06
300.063
300.067
300.071
300.075
300.079
300.083
300.087
300.091
300.095
300.099
300.103
300.107
300.111
300.115
300.119
300.123
300.126
300
300
300
300
300
300
300
300
300
300
300
300
300
300
300
300
300
300
300
300
300
300
300
300
300
300
300
300
300
300
300
300.001
300.001
300.001
300.001
300.002
300.002
300.002
300.003
300.004
300.004
300.005
300.006
300.007
300.008
300.009
300.01
300.011
300.013
300.014
300.016
300.018
300.02
300.022
300.024
300.026
300.028
300.031
300.033
300.036
300.039
300.041
300.044
300.047
300.05
300.053
300.056
300.059
300.062
300.065
300.068
300.071
300.074
300.077
300.08
300.083
300.086
300.089
300.092
300.095
300.098
300
300
300
300
300
300
300
300
300
300
300
300
300
300
300
300
300
300
300
300
300
300
300
300
300
300
300
300
300
300
300
300
300.001
300.001
300.001
300.001
300.002
300.002
300.002
300.003
300.003
300.004
300.005
300.005
300.006
300.007
300.008
300.009
300.01
300.011
300.013
300.014
300.015
300.017
300.018
300.02
300.022
300.024
300.026
300.028
300.03
300.032
300.034
300.036
300.038
300.04
300.043
300.045
300.047
300.049
300.052
300.054
300.056
300.059
300.061
300.063
300.065
300.068
300.07
300.072
300.074
300
300
300
300
300
300
300
300
300
300
300
300
300
300
300
300
300
300
300
300
300
300
300
300
300
300
300
300
300
300
300
300
300
300.001
300.001
300.001
300.001
300.001
300.002
300.002
300.002
300.003
300.003
300.004
300.005
300.005
300.006
300.007
300.008
300.008
300.009
300.01
300.012
300.013
300.014
300.015
300.016
300.018
300.019
300.021
300.022
300.024
300.025
300.027
300.028
300.03
300.031
300.033
300.035
300.036
300.038
300.04
300.041
300.043
300.045
300.046
300.048
300.049
300.051
300.053
300.054
300
300
300
300
300
300
300
300
300
300
300
300
300
300
300
300
300
300
300
300
300
300
300
300
300
300
300
300
300
300
300
300
300
300
300
300.001
300.001
300.001
300.001
300.001
300.002
300.002
300.002
300.003
300.003
300.004
300.004
300.005
300.005
300.006
300.007
300.008
300.008
300.009
300.01
300.011
300.012
300.013
300.014
300.015
300.016
300.017
300.018
300.019
300.02
300.021
300.022
300.024
300.025
300.026
300.027
300.028
300.029
300.03
300.032
300.033
300.034
300.035
300.036
300.037
300.038
300
300
300
300
300
300
300
300
300
300
300
300
300
300
300
300
300
300
300
300
300
300
300
300
300
300
300
300
300
300
300
300
300
300
300
300
300
300.001
300.001
300.001
300.001
300.001
300.002
300.002
300.002
300.003
300.003
300.003
300.004
300.004
300.005
300.005
300.006
300.006
300.007
300.007
300.008
300.009
300.009
300.01
300.011
300.012
300.012
300.013
300.014
300.015
300.015
300.016
300.017
300.018
300.018
300.019
300.02
300.021
300.022
300.022
300.023
300.024
300.024
300.025
300.026
300
300
300
300
300
300
300
300
300
300
300
300
300
300
300
300
300
300
300
300
300
300
300
300
300
300
300
300
300
300
300
300
300
300
300
300
300
300
300
300.001
300.001
300.001
300.001
300.001
300.001
300.002
300.002
300.002
300.002
300.003
300.003
300.003
300.004
300.004
300.004
300.005
300.005
300.006
300.006
300.007
300.007
300.008
300.008
300.008
300.009
300.009
300.01
300.01
300.011
300.011
300.012
300.012
300.013
300.013
300.014
300.014
300.015
300.015
300.016
300.016
300.017
300
300
300
300
300
300
300
300
300
300
300
300
300
300
300
300
300
300
300
300
300
300
300
300
300
300
300
300
300
300
300
300
300
300
300
300
300
300
300
300
300
300
300
300.001
300.001
300.001
300.001
300.001
300.001
300.002
300.002
300.002
300.002
300.002
300.003
300.003
300.003
300.003
300.004
300.004
300.004
300.005
300.005
300.005
300.005
300.006
300.006
300.006
300.007
300.007
300.007
300.008
300.008
300.008
300.009
300.009
300.009
300.009
300.01
300.01
300.01
300
300
300
300
300
300
300
300
300
300
300
300
300
300
300
300
300
300
300
300
300
300
300
300
300
300
300
300
300
300
300
300
300
300
300
300
300
300
300
300
300
300
300
300
300
300
300
300.001
300.001
300.001
300.001
300.001
300.001
300.001
300.001
300.002
300.002
300.002
300.002
300.002
300.002
300.003
300.003
300.003
300.003
300.003
300.003
300.004
300.004
300.004
300.004
300.004
300.005
300.005
300.005
300.005
300.005
300.005
300.006
300.006
300.006
300
300
300
300
300
300
300
300
300
300
300
300
300
300
300
300
300
300
300
300
300
300
300
300
300
300
300
300
300
300
300
300
300
300
300
300
300
300
300
300
300
300
300
300
300
300
300
300
300
300
300
300
300
300.001
300.001
300.001
300.001
300.001
300.001
300.001
300.001
300.001
300.001
300.001
300.002
300.002
300.002
300.002
300.002
300.002
300.002
300.002
300.002
300.002
300.003
300.003
300.003
300.003
300.003
300.003
300.003
300
300
300
300
300
300
300
300
300
300
300
300
300
300
300
300
300
300
300
299.999
299.999
299.999
299.999
299.999
299.999
299.999
299.999
299.999
300
300
300
300
300
300
300
300
300
300
300
300
300
300
300
300
300
300
300
300
300
300
300
300
300
300
300
300
300
300
300
300
300
300
300
300
300.001
300.001
300.001
300.001
300.001
300.001
300.001
300.001
300.001
300.001
300.001
300.001
300.001
300.001
300.001
300.001
300.001
300
300
300
300
300
300
300
300
300
300
300
300
300
300
299.999
299.999
299.999
299.999
299.999
299.999
299.999
299.999
299.999
299.999
299.999
299.999
299.999
299.999
299.999
299.999
299.999
299.999
299.999
299.999
299.999
299.999
299.999
299.999
299.999
300
300
300
300
300
300
300
300
300
300
300
300
300
300
300
300
300
300
300
300
300
300
300
300
300
300
300
300
300
300
300
300
300
300
300
300
300
300
300
300
300
300
300
300
300
300
300
300
300
300
300
300
300
300
299.999
299.999
299.999
299.999
299.999
299.999
299.999
299.999
299.999
299.999
299.999
299.999
299.999
299.999
299.999
299.999
299.999
299.999
299.999
299.999
299.999
299.999
299.999
299.999
299.999
299.999
299.999
299.999
299.999
299.999
299.999
299.999
299.999
299.999
299.999
299.999
299.999
299.999
299.999
300
300
300
300
300
300
300
300
300
300
300
300
300
300
300
300
300
300
300
300
300
300
300
300
300
300
300
300
300
300
300
300
300
300
300
300
300
300
300
300
299.999
299.999
299.999
299.999
299.999
299.999
299.999
299.999
299.999
299.999
299.999
299.999
299.999
299.999
299.999
299.999
299.999
299.999
299.999
299.999
299.999
299.999
299.999
299.999
299.999
299.999
299.999
299.999
299.999
299.999
299.999
299.999
299.999
299.999
299.999
299.999
299.999
299.999
299.999
299.999
299.999
299.999
299.999
299.999
299.999
299.999
299.999
299.999
299.999
299.999
299.999
299.999
299.999
299.999
299.999
299.999
299.999
299.999
299.999
299.999
299.999
299.999
299.999
299.999
300
300
300
300
300
300
300
300
300
300
300
300
300
300
300
300
299.999
299.999
299.999
299.999
299.999
299.999
299.999
299.999
299.999
299.999
299.999
299.999
299.999
299.999
299.999
299.999
299.999
299.999
299.999
299.999
299.999
299.999
299.999
299.999
299.999
299.999
299.999
299.999
299.999
299.999
299.999
299.999
299.999
299.999
299.999
299.999
299.999
299.999
299.999
299.999
299.999
299.999
299.999
299.999
299.999
299.999
299.999
299.999
299.999
299.999
299.999
299.999
299.999
299.999
299.999
299.999
299.999
299.999
299.999
299.999
299.999
299.999
299.999
299.999
299.999
299.999
299.999
299.999
299.999
299.999
299.999
299.999
300
300
300
300
300
300
300
300
299.999
299.999
299.999
299.999
299.999
299.999
299.999
299.999
299.999
299.999
299.999
299.999
299.999
299.999
299.999
299.999
299.999
299.999
299.999
299.999
299.999
299.999
299.999
299.999
299.999
299.999
299.999
299.999
299.999
299.999
299.999
299.999
299.999
299.999
299.999
299.999
299.999
299.999
299.999
299.999
299.999
299.999
299.999
299.999
299.999
299.999
299.999
299.999
299.999
299.999
299.999
299.999
299.999
299.999
299.999
299.999
299.999
299.999
299.999
299.999
299.999
299.999
299.999
299.999
299.999
299.999
299.999
299.999
299.999
299.999
299.999
299.999
299.999
300
300
300
300
300
300
300
300
299.999
299.999
299.999
299.999
299.999
299.999
299.999
299.999
299.999
299.999
299.999
299.999
299.999
299.999
299.999
299.999
299.999
299.999
299.999
299.999
299.999
299.999
299.999
299.999
299.999
299.999
299.999
299.999
299.999
299.999
299.999
299.999
299.999
299.999
299.999
299.999
299.999
299.999
299.999
299.999
299.999
299.999
299.999
299.999
299.999
299.999
299.999
299.999
299.999
299.999
299.999
299.999
299.999
299.999
299.999
299.999
299.999
299.999
299.999
299.999
299.999
299.999
299.999
299.999
299.999
299.999
299.999
299.999
299.999
299.999
299.999
299.999
299.999
300
300
300
300
300
300
300
299.999
299.999
299.999
299.999
299.999
299.999
299.999
299.999
299.999
299.999
299.999
299.999
299.999
299.999
299.999
299.999
299.999
299.999
299.999
299.999
299.999
299.999
299.999
299.999
299.999
299.999
299.999
299.999
299.999
299.999
299.999
299.999
299.999
299.999
299.999
299.999
299.999
299.999
299.999
299.999
299.999
299.999
299.999
299.999
299.999
299.999
299.999
299.999
299.999
299.999
299.999
299.999
299.999
299.999
299.999
299.999
299.999
299.999
299.999
299.999
299.999
299.999
299.999
299.999
299.999
299.999
299.999
299.999
299.999
299.999
299.999
299.999
299.999
299.999
300
300
300
300
300
300
300
299.999
299.999
299.999
299.999
299.999
299.999
299.999
299.999
299.999
299.999
299.999
299.999
299.999
299.999
299.999
299.999
299.999
299.999
299.999
299.999
299.999
299.999
299.999
299.999
299.999
299.999
299.999
299.999
299.999
299.999
299.999
299.999
299.999
299.999
299.999
299.999
299.999
299.999
299.999
299.999
299.999
299.999
299.999
299.999
299.999
299.999
299.999
299.999
299.999
299.999
299.999
299.999
299.999
299.999
299.999
299.999
299.999
299.999
299.999
299.999
299.999
299.999
299.999
299.999
299.999
299.999
299.999
299.999
299.999
299.999
299.999
299.999
299.999
299.999
301.43
301.538
301.6
301.656
301.704
301.741
301.765
301.791
301.817
301.841
301.86
301.881
301.901
301.92
301.939
301.957
301.973
301.986
302.001
302.015
302.028
302.041
302.054
302.066
302.077
302.089
302.099
302.109
302.119
302.128
302.137
302.145
302.153
302.16
302.168
302.174
302.181
302.187
302.193
302.199
302.204
302.209
302.214
302.219
302.224
302.228
302.232
302.236
302.24
302.244
302.247
302.25
302.253
302.256
302.259
302.262
302.264
302.267
302.269
302.271
302.273
302.275
302.276
302.278
302.28
302.281
302.282
302.284
302.285
302.286
302.287
302.288
302.289
302.289
302.29
302.291
302.291
302.292
302.292
302.292
302.293
302.293
302.293
302.293
302.293
302.293
302.293
302.293
302.293
302.293
302.293
302.293
302.293
302.293
302.292
302.292
302.292
302.292
302.291
302.291
302.291
302.29
302.29
302.29
302.289
302.289
302.288
302.288
302.288
302.288
302.287
302.287
302.287
302.287
302.287
302.287
302.287
302.287
302.287
302.287
302.287
302.287
302.287
302.287
302.288
302.288
302.288
302.288
302.288
302.288
302.288
302.287
302.287
302.286
302.286
302.285
302.284
302.282
302.281
302.279
302.277
302.275
302.272
302.269
302.266
302.262
302.257
302.252
302.245
302.236
302.225
302.211
302.197
302.178
302.155
302.126
302.09
302.021
301.949
301.846
301.693
301.336
301.429
301.499
301.557
301.606
301.646
301.678
301.708
301.735
301.76
301.782
301.804
301.825
301.845
301.864
301.882
301.898
301.914
301.928
301.943
301.956
301.969
301.982
301.994
302.006
302.017
302.028
302.038
302.048
302.057
302.066
302.074
302.082
302.09
302.097
302.104
302.111
302.117
302.123
302.128
302.134
302.139
302.144
302.149
302.154
302.158
302.162
302.166
302.17
302.173
302.176
302.179
302.182
302.185
302.188
302.191
302.193
302.196
302.198
302.2
302.202
302.203
302.205
302.207
302.208
302.21
302.211
302.212
302.213
302.214
302.215
302.216
302.217
302.218
302.218
302.219
302.219
302.22
302.22
302.221
302.221
302.221
302.221
302.222
302.222
302.222
302.222
302.222
302.221
302.221
302.221
302.221
302.221
302.221
302.221
302.22
302.22
302.22
302.22
302.219
302.219
302.219
302.218
302.218
302.218
302.217
302.217
302.216
302.216
302.216
302.216
302.215
302.215
302.215
302.215
302.215
302.215
302.215
302.215
302.215
302.215
302.215
302.216
302.216
302.216
302.216
302.216
302.216
302.216
302.216
302.216
302.216
302.215
302.215
302.214
302.213
302.212
302.211
302.209
302.208
302.206
302.204
302.201
302.198
302.195
302.191
302.186
302.181
302.174
302.166
302.155
302.142
302.127
302.109
302.085
302.055
302.017
301.951
301.875
301.768
301.602
301.258
301.337
301.405
301.462
301.511
301.553
301.589
301.621
301.65
301.677
301.701
301.724
301.746
301.766
301.786
301.804
301.821
301.837
301.852
301.867
301.881
301.894
301.907
301.92
301.932
301.943
301.954
301.964
301.974
301.983
301.992
302
302.008
302.016
302.023
302.03
302.037
302.043
302.049
302.055
302.06
302.065
302.07
302.075
302.079
302.084
302.088
302.092
302.095
302.099
302.102
302.105
302.108
302.111
302.114
302.116
302.119
302.121
302.123
302.125
302.127
302.129
302.13
302.132
302.133
302.135
302.136
302.137
302.138
302.139
302.14
302.141
302.142
302.142
302.143
302.144
302.144
302.145
302.145
302.145
302.146
302.146
302.146
302.146
302.146
302.146
302.146
302.146
302.146
302.146
302.146
302.146
302.146
302.145
302.145
302.145
302.145
302.145
302.144
302.144
302.144
302.143
302.143
302.143
302.142
302.142
302.142
302.141
302.141
302.141
302.141
302.14
302.14
302.14
302.14
302.14
302.14
302.14
302.14
302.14
302.14
302.14
302.14
302.141
302.141
302.141
302.141
302.141
302.141
302.141
302.141
302.14
302.14
302.14
302.139
302.138
302.137
302.136
302.135
302.133
302.131
302.129
302.127
302.124
302.121
302.117
302.112
302.107
302.1
302.092
302.081
302.069
302.054
302.035
302.012
301.981
301.941
301.877
301.799
301.688
301.514
301.188
301.256
301.317
301.372
301.42
301.462
301.5
301.533
301.564
301.591
301.617
301.641
301.663
301.684
301.704
301.723
301.741
301.757
301.773
301.788
301.802
301.816
301.829
301.842
301.854
301.865
301.876
301.886
301.896
301.905
301.914
301.923
301.931
301.939
301.946
301.953
301.959
301.966
301.972
301.977
301.983
301.988
301.993
301.997
302.002
302.006
302.01
302.014
302.018
302.021
302.024
302.027
302.03
302.033
302.036
302.038
302.04
302.043
302.045
302.047
302.049
302.05
302.052
302.053
302.055
302.056
302.057
302.058
302.059
302.06
302.061
302.062
302.063
302.064
302.064
302.065
302.065
302.066
302.066
302.066
302.067
302.067
302.067
302.067
302.067
302.067
302.067
302.067
302.067
302.067
302.067
302.067
302.067
302.067
302.066
302.066
302.066
302.066
302.065
302.065
302.065
302.065
302.064
302.064
302.064
302.063
302.063
302.063
302.062
302.062
302.062
302.062
302.061
302.061
302.061
302.061
302.061
302.061
302.061
302.061
302.061
302.062
302.062
302.062
302.062
302.062
302.062
302.062
302.062
302.062
302.062
302.062
302.061
302.061
302.06
302.059
302.059
302.057
302.056
302.055
302.053
302.051
302.048
302.046
302.043
302.039
302.035
302.029
302.023
302.015
302.004
301.992
301.977
301.959
301.935
301.904
301.863
301.8
301.72
301.607
301.43
301.121
301.18
301.235
301.286
301.332
301.373
301.411
301.445
301.476
301.505
301.531
301.555
301.578
301.6
301.62
301.64
301.658
301.675
301.691
301.706
301.721
301.734
301.748
301.76
301.772
301.784
301.795
301.805
301.815
301.825
301.834
301.842
301.85
301.858
301.865
301.872
301.879
301.885
301.891
301.897
301.902
301.907
301.912
301.917
301.921
301.925
301.929
301.933
301.936
301.94
301.943
301.946
301.949
301.952
301.954
301.957
301.959
301.961
301.963
301.965
301.967
301.968
301.97
301.971
301.973
301.974
301.975
301.976
301.977
301.978
301.979
301.98
301.981
301.981
301.982
301.982
301.983
301.983
301.984
301.984
301.984
301.985
301.985
301.985
301.985
301.985
301.985
301.985
301.985
301.985
301.985
301.984
301.984
301.984
301.984
301.984
301.984
301.983
301.983
301.983
301.983
301.982
301.982
301.982
301.981
301.981
301.981
301.98
301.98
301.98
301.98
301.979
301.979
301.979
301.979
301.979
301.979
301.979
301.979
301.979
301.979
301.979
301.979
301.98
301.98
301.98
301.98
301.98
301.98
301.98
301.98
301.979
301.979
301.979
301.978
301.977
301.976
301.975
301.974
301.973
301.971
301.969
301.967
301.964
301.961
301.958
301.954
301.948
301.942
301.934
301.924
301.912
301.897
301.879
301.855
301.823
301.781
301.719
301.639
301.525
301.35
301.055
301.107
301.157
301.203
301.247
301.286
301.323
301.357
301.388
301.417
301.443
301.468
301.492
301.513
301.534
301.553
301.572
301.589
301.605
301.621
301.636
301.65
301.663
301.676
301.688
301.7
301.711
301.721
301.731
301.74
301.749
301.758
301.766
301.774
301.781
301.788
301.795
301.801
301.807
301.812
301.818
301.823
301.828
301.832
301.837
301.841
301.845
301.848
301.852
301.855
301.858
301.861
301.864
301.867
301.869
301.872
301.874
301.876
301.878
301.88
301.881
301.883
301.884
301.886
301.887
301.888
301.89
301.891
301.892
301.893
301.893
301.894
301.895
301.896
301.896
301.897
301.897
301.897
301.898
301.898
301.898
301.899
301.899
301.899
301.899
301.899
301.899
301.899
301.899
301.899
301.899
301.899
301.898
301.898
301.898
301.898
301.898
301.897
301.897
301.897
301.897
301.896
301.896
301.896
301.895
301.895
301.895
301.895
301.894
301.894
301.894
301.894
301.894
301.893
301.893
301.893
301.893
301.893
301.893
301.893
301.894
301.894
301.894
301.894
301.894