/*--------------------------------*- C++ -*----------------------------------*\
| =========                 |                                                 |
| \\      /  F ield         | OpenFOAM: The Open Source CFD Toolbox           |
|  \\    /   O peration     | Version:  2106                                  |
|   \\  /    A nd           | Website:  www.openfoam.com                      |
|    \\/     M anipulation  |                                                 |
\*---------------------------------------------------------------------------*/
FoamFile
{
    version     2.0;
    format      ascii;
    arch        "LSB;label=32;scalar=64";
    class       volVectorField;
    location    "0.19";
    object      U;
}
// * * * * * * * * * * * * * * * * * * * * * * * * * * * * * * * * * * * * * //

dimensions      [0 1 -1 0 0 0 0];

internalField   nonuniform List<vector> 
12013
(
(0.0999237 2.22777e-05 0)
(0.0995956 3.52527e-05 0)
(0.0992103 3.13844e-05 0)
(0.0989474 2.11237e-05 0)
(0.0987853 1.44082e-05 0)
(0.0986629 1.25658e-05 0)
(0.0985422 1.33688e-05 0)
(0.0984101 1.49178e-05 0)
(0.0982661 1.6368e-05 0)
(0.0981134 1.75296e-05 0)
(0.0979548 1.8456e-05 0)
(0.0977923 1.92404e-05 0)
(0.0976267 1.99566e-05 0)
(0.0974587 2.06481e-05 0)
(0.0972885 2.1339e-05 0)
(0.0971162 2.20405e-05 0)
(0.0969418 2.27584e-05 0)
(0.0967653 2.34956e-05 0)
(0.0965868 2.42511e-05 0)
(0.0964063 2.50233e-05 0)
(0.0962238 2.58076e-05 0)
(0.0960394 2.65971e-05 0)
(0.0958532 2.73841e-05 0)
(0.0956655 2.8161e-05 0)
(0.0954765 2.89203e-05 0)
(0.0952865 2.96557e-05 0)
(0.0950958 3.03607e-05 0)
(0.0949046 3.10324e-05 0)
(0.0947134 3.16674e-05 0)
(0.0945225 3.22656e-05 0)
(0.0943321 3.28286e-05 0)
(0.0941426 3.33597e-05 0)
(0.0939542 3.38631e-05 0)
(0.093767 3.43445e-05 0)
(0.0935814 3.48106e-05 0)
(0.0933973 3.52702e-05 0)
(0.0932149 3.57305e-05 0)
(0.0930342 3.62007e-05 0)
(0.0928552 3.66882e-05 0)
(0.0926778 3.72019e-05 0)
(0.092502 3.77491e-05 0)
(0.0923276 3.83376e-05 0)
(0.0921546 3.89742e-05 0)
(0.0919828 3.96662e-05 0)
(0.091812 4.04175e-05 0)
(0.091642 4.12337e-05 0)
(0.0914726 4.21192e-05 0)
(0.0913037 4.30785e-05 0)
(0.0911351 4.41175e-05 0)
(0.0909666 4.52422e-05 0)
(0.0907978 4.64602e-05 0)
(0.0906287 4.77826e-05 0)
(0.0904589 4.92245e-05 0)
(0.0902882 5.08052e-05 0)
(0.090116 5.25527e-05 0)
(0.089942 5.4504e-05 0)
(0.0897657 5.67078e-05 0)
(0.0895861 5.9228e-05 0)
(0.0894025 6.21471e-05 0)
(0.0892137 6.55724e-05 0)
(0.0890182 6.96433e-05 0)
(0.088814 7.45391e-05 0)
(0.088599 8.0497e-05 0)
(0.0883699 8.78276e-05 0)
(0.088123 9.69427e-05 0)
(0.0878534 0.000108398 0)
(0.0875546 0.00012295 0)
(0.0872182 0.000141644 0)
(0.086833 0.000165952 0)
(0.0863844 0.000197985 0)
(0.0858518 0.00024083 0)
(0.0852074 0.000299093 0)
(0.0844114 0.000379809 0)
(0.0834067 0.000493928 0)
(0.0821095 0.000658853 0)
(0.0803952 0.000902732 0)
(0.0780737 0.00127188 0)
(0.074839 0.00184586 0)
(0.0702091 0.00278391 0)
(0.0635999 0.00452513 0)
(0.0560596 0.00902987 0)
(0.0999306 6.76243e-05 0)
(0.0996104 0.000107613 0)
(0.0992305 9.61576e-05 0)
(0.0989673 6.49783e-05 0)
(0.0988025 4.44713e-05 0)
(0.0986773 3.87849e-05 0)
(0.0985547 4.11742e-05 0)
(0.0984216 4.58606e-05 0)
(0.0982773 5.0264e-05 0)
(0.0981246 5.38006e-05 0)
(0.0979663 5.66259e-05 0)
(0.0978041 5.90233e-05 0)
(0.097639 6.12137e-05 0)
(0.0974716 6.33304e-05 0)
(0.0973019 6.5446e-05 0)
(0.0971302 6.75947e-05 0)
(0.0969564 6.97936e-05 0)
(0.0967806 7.20506e-05 0)
(0.0966028 7.43656e-05 0)
(0.0964229 7.67308e-05 0)
(0.0962411 7.91326e-05 0)
(0.0960575 8.1551e-05 0)
(0.0958722 8.39626e-05 0)
(0.0956853 8.63434e-05 0)
(0.0954971 8.8671e-05 0)
(0.0953079 9.0925e-05 0)
(0.095118 9.30887e-05 0)
(0.0949277 9.51496e-05 0)
(0.0947372 9.70993e-05 0)
(0.0945471 9.89363e-05 0)
(0.0943574 0.000100667 0)
(0.0941686 0.0001023 0)
(0.0939809 0.000103849 0)
(0.0937944 0.000105331 0)
(0.0936093 0.000106767 0)
(0.0934258 0.000108181 0)
(0.0932439 0.000109601 0)
(0.0930637 0.00011105 0)
(0.0928851 0.000112553 0)
(0.0927081 0.000114134 0)
(0.0925326 0.000115819 0)
(0.0923586 0.000117631 0)
(0.0921859 0.00011959 0)
(0.0920143 0.000121718 0)
(0.0918437 0.000124028 0)
(0.0916739 0.000126537 0)
(0.0915047 0.000129257 0)
(0.0913361 0.000132203 0)
(0.0911676 0.000135393 0)
(0.0909993 0.000138846 0)
(0.0908307 0.000142584 0)
(0.0906618 0.000146641 0)
(0.0904922 0.000151062 0)
(0.0903217 0.000155907 0)
(0.0901498 0.000161262 0)
(0.0899762 0.000167237 0)
(0.0898002 0.000173981 0)
(0.0896212 0.000181688 0)
(0.0894382 0.000190608 0)
(0.0892502 0.000201064 0)
(0.0890557 0.000213475 0)
(0.088853 0.000228386 0)
(0.0886398 0.000246505 0)
(0.0884132 0.000268762 0)
(0.0881697 0.000296389 0)
(0.0879047 0.000331036 0)
(0.0876122 0.000374937 0)
(0.0872848 0.000431166 0)
(0.0869125 0.000504016 0)
(0.0864823 0.000599586 0)
(0.085977 0.000726697 0)
(0.0853734 0.000898348 0)
(0.0846401 0.00113403 0)
(0.0837339 0.00146344 0)
(0.0825955 0.00193244 0)
(0.0811442 0.00261215 0)
(0.0792716 0.00361218 0)
(0.0768314 0.00509809 0)
(0.0736571 0.00731331 0)
(0.0697931 0.010542 0)
(0.0665486 0.0146653 0)
(0.0999395 0.000113039 0)
(0.0996401 0.00018245 0)
(0.0992741 0.000164533 0)
(0.0990108 0.000112463 0)
(0.0988395 7.76868e-05 0)
(0.0987079 6.77287e-05 0)
(0.0985811 7.14745e-05 0)
(0.0984458 7.92232e-05 0)
(0.0983008 8.65892e-05 0)
(0.0981483 9.25492e-05 0)
(0.0979906 9.7338e-05 0)
(0.0978292 0.00010142 0)
(0.0976652 0.00010516 0)
(0.0974988 0.000108779 0)
(0.0973303 0.000112398 0)
(0.0971598 0.000116076 0)
(0.0969874 0.000119841 0)
(0.096813 0.000123704 0)
(0.0966366 0.000127668 0)
(0.0964583 0.000131717 0)
(0.0962781 0.000135829 0)
(0.0960961 0.000139971 0)
(0.0959124 0.000144103 0)
(0.0957273 0.000148184 0)
(0.0955409 0.000152177 0)
(0.0953534 0.000156046 0)
(0.0951653 0.000159764 0)
(0.0949767 0.000163308 0)
(0.094788 0.000166666 0)
(0.0945995 0.000169834 0)
(0.0944115 0.000172822 0)
(0.0942243 0.000175646 0)
(0.094038 0.000178328 0)
(0.0938529 0.000180897 0)
(0.0936692 0.00018339 0)
(0.0934869 0.000185847 0)
(0.0933061 0.000188313 0)
(0.0931269 0.00019083 0)
(0.0929493 0.00019344 0)
(0.0927732 0.000196185 0)
(0.0925985 0.000199106 0)
(0.0924253 0.000202243 0)
(0.0922532 0.000205634 0)
(0.0920823 0.000209309 0)
(0.0919123 0.000213296 0)
(0.0917432 0.000217622 0)
(0.0915746 0.000222307 0)
(0.0914065 0.000227379 0)
(0.0912387 0.000232864 0)
(0.0910709 0.000238796 0)
(0.0909031 0.000245215 0)
(0.0907349 0.000252175 0)
(0.0905661 0.000259753 0)
(0.0903964 0.000268052 0)
(0.0902256 0.000277214 0)
(0.090053 0.000287425 0)
(0.0898783 0.000298936 0)
(0.0897008 0.000312069 0)
(0.0895196 0.000327243 0)
(0.0893337 0.000344996 0)
(0.0891418 0.000366023 0)
(0.0889423 0.000391221 0)
(0.0887332 0.000421751 0)
(0.0885118 0.000459133 0)
(0.0882752 0.00050536 0)
(0.0880192 0.000563078 0)
(0.087739 0.000635836 0)
(0.0874283 0.000728452 0)
(0.0870791 0.00084755 0)
(0.0866817 0.00100236 0)
(0.0862233 0.00120595 0)
(0.0856884 0.00147702 0)
(0.0850573 0.00184265 0)
(0.0843065 0.00234236 0)
(0.0834089 0.00303377 0)
(0.0823371 0.0039997 0)
(0.0810716 0.00535444 0)
(0.0796176 0.00724239 0)
(0.0780483 0.00981352 0)
(0.0766378 0.0130984 0)
(0.0761043 0.0165084 0)
(0.0999503 0.000156225 0)
(0.0996832 0.000257454 0)
(0.0993395 0.000235638 0)
(0.0990768 0.000164228 0)
(0.0988963 0.00011521 0)
(0.098755 0.000100386 0)
(0.0986217 0.000104923 0)
(0.0984833 0.000115383 0)
(0.0983373 0.000125551 0)
(0.0981851 0.000133888 0)
(0.0980283 0.000140656 0)
(0.0978683 0.000146466 0)
(0.0977058 0.000151812 0)
(0.0975411 0.000156998 0)
(0.0973745 0.000162188 0)
(0.097206 0.000167466 0)
(0.0970356 0.000172869 0)
(0.0968634 0.000178415 0)
(0.0966893 0.000184103 0)
(0.0965133 0.000189916 0)
(0.0963356 0.00019582 0)
(0.0961562 0.000201769 0)
(0.0959751 0.000207707 0)
(0.0957927 0.000213577 0)
(0.095609 0.000219325 0)
(0.0954243 0.000224902 0)
(0.095239 0.000230268 0)
(0.0950532 0.000235393 0)
(0.0948672 0.000240257 0)
(0.0946813 0.000244857 0)
(0.0944959 0.000249206 0)
(0.0943111 0.000253324 0)
(0.0941272 0.000257243 0)
(0.0939443 0.000261006 0)
(0.0937626 0.000264662 0)
(0.0935823 0.000268271 0)
(0.0934033 0.000271893 0)
(0.0932258 0.000275588 0)
(0.0930498 0.000279416 0)
(0.0928752 0.000283437 0)
(0.0927019 0.00028771 0)
(0.0925299 0.00029229 0)
(0.0923591 0.000297229 0)
(0.0921893 0.000302573 0)
(0.0920205 0.000308359 0)
(0.0918524 0.000314623 0)
(0.091685 0.000321399 0)
(0.091518 0.000328723 0)
(0.0913514 0.000336632 0)
(0.0911849 0.000345173 0)
(0.0910184 0.000354402 0)
(0.0908517 0.000364398 0)
(0.0906846 0.000375266 0)
(0.0905167 0.000387153 0)
(0.0903479 0.000400254 0)
(0.0901776 0.000414833 0)
(0.0900055 0.000431237 0)
(0.0898309 0.000449912 0)
(0.0896532 0.000471436 0)
(0.0894714 0.000496549 0)
(0.0892843 0.000526202 0)
(0.0890907 0.00056161 0)
(0.0888888 0.000604338 0)
(0.0886765 0.000656413 0)
(0.0884513 0.000720465 0)
(0.0882101 0.000799942 0)
(0.0879491 0.000899395 0)
(0.087664 0.00102489 0)
(0.0873495 0.00118458 0)
(0.0869994 0.00138954 0)
(0.0866068 0.00165492 0)
(0.0861645 0.00200156 0)
(0.0856656 0.00245824 0)
(0.0851058 0.00306451 0)
(0.0844864 0.00387375 0)
(0.0838217 0.00495525 0)
(0.08315 0.00639108 0)
(0.0825512 0.0082594 0)
(0.0821711 0.0105873 0)
(0.0822479 0.0132335 0)
(0.0830717 0.0156281 0)
(0.0999624 0.000195152 0)
(0.0997355 0.000330003 0)
(0.099421 0.000308392 0)
(0.0991608 0.00022076 0)
(0.0989697 0.00015814 0)
(0.0988168 0.000137753 0)
(0.0986756 0.000142191 0)
(0.0985333 0.000154729 0)
(0.0983861 0.00016735 0)
(0.0982343 0.000177913 0)
(0.0980789 0.000186614 0)
(0.0979207 0.00019416 0)
(0.0977603 0.000201148 0)
(0.0975979 0.000207946 0)
(0.0974338 0.00021476 0)
(0.0972679 0.000221694 0)
(0.0971003 0.000228793 0)
(0.096931 0.000236082 0)
(0.0967599 0.000243558 0)
(0.0965872 0.000251198 0)
(0.0964128 0.00025896 0)
(0.0962368 0.000266785 0)
(0.0960593 0.000274601 0)
(0.0958805 0.000282337 0)
(0.0957005 0.000289921 0)
(0.0955196 0.000297294 0)
(0.0953379 0.000304401 0)
(0.0951558 0.000311206 0)
(0.0949735 0.000317681 0)
(0.0947912 0.000323823 0)
(0.0946092 0.000329646 0)
(0.0944278 0.000335178 0)
(0.094247 0.000340459 0)
(0.0940671 0.000345541 0)
(0.0938883 0.000350491 0)
(0.0937107 0.000355382 0)
(0.0935342 0.000360292 0)
(0.0933591 0.000365297 0)
(0.0931852 0.000370476 0)
(0.0930126 0.000375905 0)
(0.0928413 0.00038166 0)
(0.0926711 0.000387811 0)
(0.0925021 0.000394425 0)
(0.092334 0.000401558 0)
(0.0921668 0.000409261 0)
(0.0920004 0.000417577 0)
(0.0918347 0.000426551 0)
(0.0916696 0.000436228 0)
(0.0915048 0.000446655 0)
(0.0913404 0.000457892 0)
(0.0911761 0.00047001 0)
(0.0910118 0.00048311 0)
(0.0908473 0.000497325 0)
(0.0906823 0.000512841 0)
(0.0905167 0.000529908 0)
(0.0903501 0.000548856 0)
(0.0901822 0.000570121 0)
(0.0900123 0.00059426 0)
(0.0898401 0.000621992 0)
(0.0896646 0.000654232 0)
(0.0894851 0.000692141 0)
(0.0893004 0.000737196 0)
(0.0891094 0.000791277 0)
(0.0889104 0.000856783 0)
(0.0887017 0.000936789 0)
(0.0884814 0.00103525 0)
(0.0882472 0.00115729 0)
(0.0879966 0.00130956 0)
(0.0877273 0.00150074 0)
(0.0874371 0.00174223 0)
(0.0871246 0.00204894 0)
(0.0867904 0.00244042 0)
(0.0864383 0.00294203 0)
(0.0860781 0.00358605 0)
(0.0857297 0.00441203 0)
(0.0854291 0.00546472 0)
(0.0852364 0.00678635 0)
(0.0852439 0.00839712 0)
(0.0855797 0.0102556 0)
(0.0863916 0.0121895 0)
(0.0877696 0.0138077 0)
(0.0999744 0.000228163 0)
(0.0997912 0.000397713 0)
(0.0995105 0.000381594 0)
(0.0992557 0.000282179 0)
(0.0990548 0.000207248 0)
(0.0988899 0.000180633 0)
(0.0987404 0.000183866 0)
(0.0985938 0.000197613 0)
(0.0984454 0.00021217 0)
(0.0982942 0.000224697 0)
(0.0981404 0.000235223 0)
(0.0979844 0.000244476 0)
(0.0978266 0.000253112 0)
(0.0976671 0.000261548 0)
(0.0975061 0.000270021 0)
(0.0973434 0.00027865 0)
(0.0971793 0.000287489 0)
(0.0970135 0.000296564 0)
(0.0968462 0.000305874 0)
(0.0966774 0.000315388 0)
(0.0965071 0.000325058 0)
(0.0963353 0.000334813 0)
(0.0961621 0.000344567 0)
(0.0959877 0.000354233 0)
(0.0958122 0.000363728 0)
(0.0956359 0.000372977 0)
(0.0954588 0.000381916 0)
(0.0952812 0.0003905 0)
(0.0951034 0.000398697 0)
(0.0949255 0.0004065 0)
(0.0947477 0.000413926 0)
(0.0945704 0.000421008 0)
(0.0943935 0.000427793 0)
(0.0942174 0.000434345 0)
(0.0940421 0.000440741 0)
(0.0938678 0.000447069 0)
(0.0936945 0.000453422 0)
(0.0935223 0.000459893 0)
(0.0933512 0.000466575 0)
(0.0931813 0.000473561 0)
(0.0930124 0.000480941 0)
(0.0928446 0.000488801 0)
(0.0926778 0.000497218 0)
(0.092512 0.000506259 0)
(0.0923471 0.000515984 0)
(0.092183 0.000526447 0)
(0.0920197 0.0005377 0)
(0.091857 0.000549794 0)
(0.0916949 0.000562787 0)
(0.0915332 0.000576747 0)
(0.091372 0.000591761 0)
(0.091211 0.000607946 0)
(0.0910502 0.000625462 0)
(0.0908893 0.000644527 0)
(0.0907283 0.000665436 0)
(0.0905668 0.000688577 0)
(0.0904047 0.000714456 0)
(0.0902415 0.000743724 0)
(0.0900768 0.000777206 0)
(0.0899102 0.000815945 0)
(0.089741 0.000861254 0)
(0.0895685 0.000914782 0)
(0.0893921 0.000978597 0)
(0.0892107 0.0010553 0)
(0.0890236 0.00114815 0)
(0.08883 0.00126127 0)
(0.088629 0.00139982 0)
(0.0884204 0.00157034 0)
(0.0882045 0.00178102 0)
(0.0879826 0.00204217 0)
(0.0877579 0.00236657 0)
(0.0875366 0.00276996 0)
(0.0873295 0.00327119 0)
(0.087154 0.00389196 0)
(0.0870377 0.00465546 0)
(0.0870212 0.00558266 0)
(0.087162 0.00668457 0)
(0.0875351 0.0079477 0)
(0.0882265 0.00931083 0)
(0.0893106 0.0106354 0)
(0.0907975 0.0116869 0)
(0.0999853 0.00025434 0)
(0.0998442 0.000458887 0)
(0.0995993 0.000454058 0)
(0.0993533 0.000348151 0)
(0.0991453 0.000262819 0)
(0.0989701 0.000229515 0)
(0.0988127 0.000230385 0)
(0.0986621 0.000244343 0)
(0.0985126 0.000260197 0)
(0.0983622 0.00027434 0)
(0.0982103 0.000286522 0)
(0.0980569 0.000297411 0)
(0.0979021 0.000307674 0)
(0.097746 0.000317752 0)
(0.0975884 0.0003279 0)
(0.0974296 0.000338247 0)
(0.0972693 0.000348852 0)
(0.0971077 0.000359742 0)
(0.0969448 0.000370915 0)
(0.0967804 0.000382336 0)
(0.0966147 0.00039395 0)
(0.0964477 0.000405674 0)
(0.0962795 0.00041741 0)
(0.0961102 0.00042906 0)
(0.0959399 0.000440528 0)
(0.0957687 0.000451726 0)
(0.0955968 0.000462585 0)
(0.0954245 0.000473048 0)
(0.0952517 0.00048308 0)
(0.0950789 0.000492672 0)
(0.094906 0.00050184 0)
(0.0947334 0.000510622 0)
(0.0945611 0.000519071 0)
(0.0943894 0.000527258 0)
(0.0942182 0.000535274 0)
(0.0940478 0.000543214 0)
(0.0938782 0.000551186 0)
(0.0937095 0.000559295 0)
(0.0935417 0.000567649 0)
(0.0933749 0.000576354 0)
(0.0932091 0.000585512 0)
(0.0930442 0.00059522 0)
(0.0928803 0.000605564 0)
(0.0927173 0.00061662 0)
(0.0925552 0.000628457 0)
(0.0923941 0.000641134 0)
(0.0922337 0.000654708 0)
(0.0920742 0.000669236 0)
(0.0919155 0.000684782 0)
(0.0917575 0.00070142 0)
(0.0916002 0.000719246 0)
(0.0914435 0.000738391 0)
(0.0912874 0.000759032 0)
(0.0911319 0.000781413 0)
(0.0909768 0.000805861 0)
(0.0908219 0.000832803 0)
(0.0906673 0.000862794 0)
(0.0905126 0.000896543 0)
(0.0903576 0.000934939 0)
(0.0902022 0.000979095 0)
(0.090046 0.00103039 0)
(0.0898888 0.00109054 0)
(0.0897304 0.00116164 0)
(0.0895705 0.0012463 0)
(0.0894093 0.00134769 0)
(0.0892471 0.0014697 0)
(0.0890844 0.00161708 0)
(0.0889228 0.00179557 0)
(0.0887647 0.00201208 0)
(0.0886141 0.0022748 0)
(0.0884772 0.00259325 0)
(0.0883633 0.00297816 0)
(0.0882862 0.00344105 0)
(0.0882653 0.00399325 0)
(0.0883272 0.00464396 0)
(0.0885073 0.00539685 0)
(0.0888494 0.00624454 0)
(0.0894037 0.00716035 0)
(0.090218 0.00808799 0)
(0.0913218 0.00893279 0)
(0.0926987 0.00956428 0)
(0.0999941 0.000273644 0)
(0.0998903 0.000512697 0)
(0.0996805 0.000524741 0)
(0.0994467 0.000417908 0)
(0.0992356 0.000324591 0)
(0.0990528 0.000284494 0)
(0.0988892 0.000281977 0)
(0.0987353 0.000295146 0)
(0.0985851 0.000311601 0)
(0.0984358 0.000326951 0)
(0.0982861 0.000340572 0)
(0.0981356 0.00035299 0)
(0.0979841 0.000364832 0)
(0.0978315 0.000376533 0)
(0.0976779 0.000388352 0)
(0.0975232 0.000400423 0)
(0.0973673 0.000412804 0)
(0.0972102 0.000425525 0)
(0.097052 0.000438577 0)
(0.0968926 0.000451924 0)
(0.096732 0.000465502 0)
(0.0965702 0.00047922 0)
(0.0964074 0.000492971 0)
(0.0962436 0.000506648 0)
(0.0960789 0.000520141 0)
(0.0959134 0.000533357 0)
(0.0957472 0.000546215 0)
(0.0955805 0.000558655 0)
(0.0954133 0.000570636 0)
(0.095246 0.000582145 0)
(0.0950785 0.000593201 0)
(0.0949111 0.000603841 0)
(0.0947438 0.000614124 0)
(0.0945769 0.000624127 0)
(0.0944104 0.000633946 0)
(0.0942444 0.000643688 0)
(0.094079 0.000653467 0)
(0.0939143 0.000663399 0)
(0.0937503 0.000673601 0)
(0.0935872 0.00068419 0)
(0.0934249 0.000695277 0)
(0.0932635 0.000706965 0)
(0.093103 0.000719348 0)
(0.0929434 0.000732508 0)
(0.0927849 0.000746516 0)
(0.0926272 0.000761436 0)
(0.0924706 0.000777326 0)
(0.092315 0.000794246 0)
(0.0921605 0.000812259 0)
(0.092007 0.000831441 0)
(0.0918545 0.000851892 0)
(0.0917032 0.000873747 0)
(0.091553 0.000897192 0)
(0.091404 0.000922483 0)
(0.0912561 0.000949959 0)
(0.0911094 0.000980065 0)
(0.0909638 0.00101338 0)
(0.0908194 0.00105061 0)
(0.0906761 0.00109268 0)
(0.0905341 0.00114068 0)
(0.0903934 0.00119598 0)
(0.0902541 0.00126022 0)
(0.0901166 0.00133538 0)
(0.0899814 0.00142386 0)
(0.0898492 0.00152848 0)
(0.0897214 0.00165259 0)
(0.0895998 0.0018001 0)
(0.0894871 0.00197552 0)
(0.0893873 0.00218397 0)
(0.0893057 0.00243105 0)
(0.0892499 0.00272268 0)
(0.0892301 0.00306468 0)
(0.0892599 0.00346212 0)
(0.0893567 0.00391818 0)
(0.0895421 0.00443254 0)
(0.089842 0.00499905 0)
(0.090285 0.00560263 0)
(0.0908996 0.00621578 0)
(0.0917077 0.00679553 0)
(0.0927155 0.00728293 0)
(0.0939013 0.00760927 0)
(0.1 0.000286725 0)
(0.0999272 0.000559068 0)
(0.09975 0.000592809 0)
(0.0995312 0.000490391 0)
(0.0993214 0.000391835 0)
(0.0991345 0.000345265 0)
(0.0989668 0.000338611 0)
(0.0988108 0.000350101 0)
(0.0986605 0.000366477 0)
(0.0985125 0.000382601 0)
(0.0983653 0.000397409 0)
(0.0982178 0.000411216 0)
(0.0980699 0.000424562 0)
(0.0979213 0.000437846 0)
(0.0977719 0.000451317 0)
(0.0976216 0.000465102 0)
(0.0974704 0.000479258 0)
(0.0973181 0.00049381 0)
(0.0971649 0.000508747 0)
(0.0970107 0.000524026 0)
(0.0968555 0.000539579 0)
(0.0966993 0.000555308 0)
(0.0965422 0.000571098 0)
(0.0963841 0.000586834 0)
(0.0962253 0.0006024 0)
(0.0960657 0.000617692 0)
(0.0959055 0.000632627 0)
(0.0957447 0.000647137 0)
(0.0955835 0.000661178 0)
(0.095422 0.000674736 0)
(0.0952602 0.000687826 0)
(0.0950983 0.000700486 0)
(0.0949365 0.000712778 0)
(0.0947747 0.000724781 0)
(0.0946132 0.000736594 0)
(0.094452 0.00074833 0)
(0.0942912 0.000760107 0)
(0.094131 0.000772045 0)
(0.0939713 0.000784269 0)
(0.0938124 0.0007969 0)
(0.0936542 0.000810054 0)
(0.0934968 0.000823838 0)
(0.0933404 0.000838348 0)
(0.0931849 0.000853666 0)
(0.0930304 0.000869866 0)
(0.0928771 0.000887009 0)
(0.092725 0.000905151 0)
(0.0925741 0.000924348 0)
(0.0924246 0.000944658 0)
(0.0922765 0.000966151 0)
(0.0921299 0.000988921 0)
(0.091985 0.0010131 0)
(0.0918418 0.00103886 0)
(0.0917004 0.00106646 0)
(0.0915611 0.00109623 0)
(0.0914239 0.0011286 0)
(0.0912889 0.00116413 0)
(0.0911565 0.00120351 0)
(0.0910267 0.00124759 0)
(0.0909 0.0012974 0)
(0.0907768 0.00135418 0)
(0.0906575 0.00141939 0)
(0.0905431 0.00149474 0)
(0.0904345 0.00158223 0)
(0.0903331 0.00168415 0)
(0.090241 0.00180305 0)
(0.0901608 0.00194179 0)
(0.0900959 0.00210342 0)
(0.0900508 0.0022911 0)
(0.0900314 0.0025079 0)
(0.0900453 0.00275649 0)
(0.0901019 0.00303868 0)
(0.0902125 0.00335478 0)
(0.0903908 0.00370277 0)
(0.0906522 0.00407716 0)
(0.0910133 0.00446785 0)
(0.0914903 0.00485883 0)
(0.0920965 0.00522736 0)
(0.0928391 0.00554404 0)
(0.093714 0.0057747 0)
(0.0947018 0.00588517 0)
(0.100004 0.00029463 0)
(0.0999548 0.000598472 0)
(0.0998064 0.000657701 0)
(0.0996044 0.000564465 0)
(0.0993998 0.000463546 0)
(0.0992126 0.000411234 0)
(0.0990433 0.000400041 0)
(0.0988864 0.000409152 0)
(0.0987367 0.000424843 0)
(0.0985906 0.000441317 0)
(0.098446 0.000457042 0)
(0.0983019 0.000472077 0)
(0.0981578 0.000486829 0)
(0.0980133 0.000501638 0)
(0.0978683 0.000516724 0)
(0.0977226 0.0005322 0)
(0.0975763 0.000548118 0)
(0.0974291 0.000564493 0)
(0.0972811 0.00058131 0)
(0.0971323 0.000598523 0)
(0.0969826 0.000616055 0)
(0.0968321 0.000633805 0)
(0.0966808 0.000651652 0)
(0.0965287 0.000669474 0)
(0.0963759 0.000687152 0)
(0.0962224 0.000704578 0)
(0.0960683 0.000721662 0)
(0.0959137 0.000738333 0)
(0.0957585 0.000754545 0)
(0.095603 0.00077028 0)
(0.0954471 0.00078555 0)
(0.095291 0.000800392 0)
(0.0951348 0.000814865 0)
(0.0949785 0.00082905 0)
(0.0948223 0.000843044 0)
(0.0946663 0.000856959 0)
(0.0945105 0.000870912 0)
(0.0943552 0.000885028 0)
(0.0942003 0.000899429 0)
(0.094046 0.000914238 0)
(0.0938925 0.00092957 0)
(0.0937398 0.000945532 0)
(0.093588 0.000962218 0)
(0.0934372 0.000979706 0)
(0.0932877 0.000998065 0)
(0.0931394 0.00101735 0)
(0.0929925 0.00103761 0)
(0.0928472 0.00105888 0)
(0.0927036 0.00108122 0)
(0.0925619 0.00110467 0)
(0.0924222 0.00112932 0)
(0.0922847 0.00115528 0)
(0.0921496 0.0011827 0)
(0.0920172 0.0012118 0)
(0.0918877 0.0012429 0)
(0.0917613 0.00127637 0)
(0.0916384 0.00131272 0)
(0.0915194 0.00135255 0)
(0.0914047 0.00139661 0)
(0.0912948 0.00144578 0)
(0.0911905 0.00150108 0)
(0.0910927 0.00156369 0)
(0.0910024 0.00163495 0)
(0.0909213 0.00171633 0)
(0.090851 0.00180943 0)
(0.0907939 0.00191594 0)
(0.090753 0.00203758 0)
(0.090732 0.00217595 0)
(0.0907354 0.00233242 0)
(0.0907686 0.00250793 0)
(0.0908382 0.00270263 0)
(0.0909519 0.00291554 0)
(0.0911183 0.0031441 0)
(0.091347 0.0033836 0)
(0.0916475 0.0036267 0)
(0.0920293 0.00386296 0)
(0.0925 0.0040787 0)
(0.0930643 0.00425731 0)
(0.0937218 0.00438029 0)
(0.0944653 0.00442927 0)
(0.0952793 0.00438889 0)
(0.100006 0.000298554 0)
(0.0999741 0.000631736 0)
(0.0998502 0.000719133 0)
(0.0996658 0.000639085 0)
(0.0994697 0.000538619 0)
(0.0992853 0.000481646 0)
(0.0991168 0.000465868 0)
(0.0989606 0.000472141 0)
(0.0988123 0.000486659 0)
(0.0986685 0.000503097 0)
(0.0985269 0.000519474 0)
(0.0983864 0.000535562 0)
(0.0982462 0.000551608 0)
(0.098106 0.000567867 0)
(0.0979656 0.000584519 0)
(0.0978247 0.000601654 0)
(0.0976833 0.000619312 0)
(0.0975413 0.000637497 0)
(0.0973987 0.000656186 0)
(0.0972554 0.000675327 0)
(0.0971114 0.00069484 0)
(0.0969666 0.000714616 0)
(0.0968212 0.000734533 0)
(0.0966752 0.000754466 0)
(0.0965284 0.000774294 0)
(0.0963811 0.000793904 0)
(0.0962331 0.000813205 0)
(0.0960846 0.000832123 0)
(0.0959356 0.00085061 0)
(0.0957861 0.000868644 0)
(0.0956363 0.000886234 0)
(0.0954861 0.000903409 0)
(0.0953357 0.000920226 0)
(0.0951851 0.000936758 0)
(0.0950345 0.000953101 0)
(0.0948839 0.000969359 0)
(0.0947336 0.000985646 0)
(0.0945835 0.00100208 0)
(0.0944339 0.00101878 0)
(0.0942848 0.00103587 0)
(0.0941365 0.00105345 0)
(0.093989 0.00107163 0)
(0.0938426 0.00109049 0)
(0.0936973 0.0011101 0)
(0.0935533 0.00113052 0)
(0.0934109 0.00115179 0)
(0.0932702 0.00117393 0)
(0.0931313 0.00119698 0)
(0.0929946 0.00122096 0)
(0.0928602 0.00124589 0)
(0.0927284 0.00127183 0)
(0.0925994 0.00129885 0)
(0.0924736 0.00132707 0)
(0.0923513 0.00135667 0)
(0.0922328 0.00138789 0)
(0.0921185 0.00142105 0)
(0.0920088 0.00145654 0)
(0.0919044 0.00149485 0)
(0.0918058 0.00153655 0)
(0.0917138 0.00158233 0)
(0.0916294 0.00163291 0)
(0.0915535 0.00168914 0)
(0.0914877 0.0017519 0)
(0.0914335 0.00182207 0)
(0.091393 0.00190057 0)
(0.0913686 0.0019882 0)
(0.0913632 0.00208562 0)
(0.0913803 0.0021932 0)
(0.0914239 0.00231089 0)
(0.0914986 0.00243803 0)
(0.0916095 0.00257314 0)
(0.0917623 0.00271363 0)
(0.091963 0.00285557 0)
(0.0922172 0.00299345 0)
(0.0925306 0.00312 0)
(0.0929075 0.00322625 0)
(0.0933505 0.0033018 0)
(0.0938596 0.00333555 0)
(0.0944318 0.00331682 0)
(0.0950595 0.00323684 0)
(0.0957313 0.0030904 0)
(0.100007 0.000299654 0)
(0.0999866 0.000659856 0)
(0.0998832 0.000777057 0)
(0.0997161 0.00071336 0)
(0.0995307 0.000615978 0)
(0.0993519 0.000555666 0)
(0.0991862 0.000535586 0)
(0.0990322 0.000538816 0)
(0.0988862 0.000551814 0)
(0.0987451 0.000567893 0)
(0.0986069 0.000584676 0)
(0.0984701 0.000601642 0)
(0.0983341 0.000618858 0)
(0.0981984 0.000636485 0)
(0.0980627 0.000654646 0)
(0.0979267 0.000673402 0)
(0.0977904 0.000692773 0)
(0.0976537 0.000712751 0)
(0.0975164 0.000733302 0)
(0.0973787 0.000754367 0)
(0.0972403 0.000775859 0)
(0.0971014 0.000797667 0)
(0.0969619 0.000819668 0)
(0.0968218 0.000841736 0)
(0.0966811 0.000863749 0)
(0.0965399 0.000885595 0)
(0.096398 0.000907177 0)
(0.0962557 0.000928422 0)
(0.0961128 0.000949278 0)
(0.0959695 0.000969721 0)
(0.0958257 0.000989751 0)
(0.0956815 0.00100939 0)
(0.095537 0.00102869 0)
(0.0953923 0.00104771 0)
(0.0952476 0.00106654 0)
(0.0951028 0.00108527 0)
(0.0949582 0.00110401 0)
(0.0948138 0.00112287 0)
(0.0946699 0.00114195 0)
(0.0945266 0.00116136 0)
(0.0943841 0.00118121 0)
(0.0942425 0.00120158 0)
(0.094102 0.00122254 0)
(0.0939629 0.00124415 0)
(0.0938254 0.00126644 0)
(0.0936896 0.00128944 0)
(0.0935558 0.00131314 0)
(0.0934244 0.00133755 0)
(0.0932954 0.00136266 0)
(0.0931694 0.00138844 0)
(0.0930465 0.00141492 0)
(0.0929271 0.00144212 0)
(0.0928116 0.0014701 0)
(0.0927004 0.00149898 0)
(0.0925939 0.00152892 0)
(0.0924926 0.00156012 0)
(0.0923972 0.00159285 0)
(0.0923082 0.00162745 0)
(0.0922265 0.00166428 0)
(0.0921528 0.00170376 0)
(0.0920883 0.00174632 0)
(0.0920342 0.0017924 0)
(0.0919919 0.00184242 0)
(0.0919632 0.00189673 0)
(0.09195 0.00195556 0)
(0.0919545 0.00201895 0)
(0.0919795 0.0020867 0)
(0.0920278 0.00215823 0)
(0.0921027 0.00223251 0)
(0.0922077 0.0023079 0)
(0.0923466 0.00238202 0)
(0.092523 0.00245162 0)
(0.0927406 0.00251247 0)
(0.0930026 0.00255932 0)
(0.0933114 0.00258593 0)
(0.0936686 0.00258535 0)
(0.0940739 0.0025503 0)
(0.0945257 0.00247393 0)
(0.09502 0.00235078 0)
(0.0955504 0.00217779 0)
(0.0961087 0.00195521 0)
(0.100007 0.000298933 0)
(0.099994 0.000683869 0)
(0.099907 0.000831612 0)
(0.0997566 0.000786625 0)
(0.0995831 0.00069467 0)
(0.0994119 0.00063246 0)
(0.099251 0.000608638 0)
(0.0991004 0.00060885 0)
(0.0989576 0.000620126 0)
(0.0988198 0.000635609 0)
(0.0986853 0.000652586 0)
(0.0985526 0.00067026 0)
(0.0984209 0.000688524 0)
(0.0982897 0.000707432 0)
(0.0981588 0.000727041 0)
(0.0980278 0.000747375 0)
(0.0978967 0.00076843 0)
(0.0977653 0.000790182 0)
(0.0976335 0.000812582 0)
(0.0975012 0.000835564 0)
(0.0973686 0.000859037 0)
(0.0972354 0.000882885 0)
(0.0971018 0.000906986 0)
(0.0969676 0.000931215 0)
(0.0968329 0.00095545 0)
(0.0966977 0.000979578 0)
(0.096562 0.0010035 0)
(0.0964257 0.00102715 0)
(0.096289 0.00105046 0)
(0.0961517 0.0010734 0)
(0.096014 0.00109597 0)
(0.0958759 0.00111818 0)
(0.0957375 0.00114006 0)
(0.0955989 0.00116167 0)
(0.0954602 0.00118308 0)
(0.0953215 0.00120436 0)
(0.095183 0.00122561 0)
(0.0950448 0.00124693 0)
(0.0949071 0.00126841 0)
(0.09477 0.00129013 0)
(0.0946339 0.00131219 0)
(0.0944988 0.00133465 0)
(0.0943651 0.00135756 0)
(0.0942329 0.00138095 0)
(0.0941025 0.00140484 0)
(0.0939743 0.0014292 0)
(0.0938483 0.00145401 0)
(0.0937251 0.00147923 0)
(0.0936049 0.0015048 0)
(0.0934881 0.00153067 0)
(0.0933751 0.00155679 0)
(0.0932661 0.00158313 0)
(0.0931618 0.00160968 0)
(0.0930626 0.00163647 0)
(0.092969 0.00166355 0)
(0.0928815 0.001691 0)
(0.0928008 0.00171895 0)
(0.0927277 0.00174753 0)
(0.0926629 0.0017769 0)
(0.0926075 0.0018072 0)
(0.0925624 0.00183855 0)
(0.0925289 0.00187101 0)
(0.0925085 0.00190456 0)
(0.0925027 0.00193905 0)
(0.0925133 0.00197416 0)
(0.0925422 0.00200936 0)
(0.0925917 0.0020438 0)
(0.092664 0.00207631 0)
(0.0927615 0.00210526 0)
(0.0928867 0.00212854 0)
(0.093042 0.00214346 0)
(0.0932296 0.00214673 0)
(0.0934515 0.00213444 0)
(0.0937089 0.0021021 0)
(0.0940027 0.00204482 0)
(0.0943326 0.00195754 0)
(0.0946974 0.0018355 0)
(0.0950947 0.00167489 0)
(0.0955208 0.00147357 0)
(0.0959708 0.00123184 0)
(0.0964386 0.000952872 0)
(0.100006 0.000297214 0)
(0.0999978 0.000704783 0)
(0.0999238 0.0008831 0)
(0.0997887 0.000858464 0)
(0.0996278 0.000773908 0)
(0.0994655 0.000711269 0)
(0.0993108 0.000684458 0)
(0.0991648 0.000681863 0)
(0.099026 0.000691368 0)
(0.0988922 0.000706107 0)
(0.0987616 0.000723108 0)
(0.0986332 0.000741348 0)
(0.0985061 0.000760548 0)
(0.0983796 0.000780651 0)
(0.0982536 0.000801644 0)
(0.0981277 0.000823509 0)
(0.0980018 0.000846217 0)
(0.0978757 0.00086972 0)
(0.0977493 0.000893956 0)
(0.0976226 0.00091885 0)
(0.0974956 0.000944304 0)
(0.0973682 0.000970201 0)
(0.0972404 0.000996419 0)
(0.0971121 0.00102283 0)
(0.0969833 0.00104932 0)
(0.0968541 0.00107577 0)
(0.0967244 0.00110209 0)
(0.0965942 0.00112819 0)
(0.0964635 0.00115402 0)
(0.0963324 0.00117953 0)
(0.0962008 0.00120471 0)
(0.0960689 0.00122955 0)
(0.0959367 0.00125408 0)
(0.0958044 0.00127832 0)
(0.095672 0.00130234 0)
(0.0955397 0.00132619 0)
(0.0954076 0.00134995 0)
(0.095276 0.0013737 0)
(0.095145 0.0013975 0)
(0.0950148 0.00142144 0)
(0.0948856 0.00144556 0)
(0.0947577 0.00146992 0)
(0.0946314 0.00149454 0)
(0.0945068 0.0015194 0)
(0.0943844 0.00154449 0)
(0.0942644 0.00156974 0)
(0.0941471 0.0015951 0)
(0.094033 0.00162045 0)
(0.0939224 0.0016457 0)
(0.0938156 0.00167075 0)
(0.0937132 0.00169547 0)
(0.0936156 0.00171977 0)
(0.0935231 0.00174356 0)
(0.0934365 0.00176677 0)
(0.0933562 0.00178932 0)
(0.0932828 0.00181117 0)
(0.0932171 0.00183228 0)
(0.0931597 0.00185258 0)
(0.0931115 0.00187201 0)
(0.0930734 0.00189044 0)
(0.0930466 0.00190771 0)
(0.093032 0.00192354 0)
(0.093031 0.00193754 0)
(0.093045 0.00194919 0)
(0.0930754 0.00195775 0)
(0.0931238 0.00196228 0)
(0.0931918 0.00196157 0)
(0.0932811 0.00195408 0)
(0.0933934 0.00193797 0)
(0.0935301 0.00191101 0)
(0.0936927 0.0018706 0)
(0.0938823 0.00181374 0)
(0.0940995 0.00173712 0)
(0.0943448 0.00163718 0)
(0.0946177 0.00151025 0)
(0.0949175 0.00135288 0)
(0.0952425 0.00116216 0)
(0.0955902 0.000936318 0)
(0.0959577 0.000675276 0)
(0.0963411 0.000381251 0)
(0.0967361 5.9305e-05 0)
(0.100005 0.000295135 0)
(0.099999 0.000723508 0)
(0.0999352 0.0009319 0)
(0.0998139 0.000928616 0)
(0.0996655 0.000853043 0)
(0.099513 0.000791383 0)
(0.0993656 0.000762433 0)
(0.0992252 0.000757409 0)
(0.0990912 0.000765239 0)
(0.0989619 0.00077917 0)
(0.0988358 0.000796087 0)