/*--------------------------------*- C++ -*----------------------------------*\
| =========                 |                                                 |
| \\      /  F ield         | OpenFOAM: The Open Source CFD Toolbox           |
|  \\    /   O peration     | Version:  2106                                  |
|   \\  /    A nd           | Website:  www.openfoam.com                      |
|    \\/     M anipulation  |                                                 |
\*---------------------------------------------------------------------------*/
FoamFile
{
    version     2.0;
    format      ascii;
    arch        "LSB;label=32;scalar=64";
    class       surfaceScalarField;
    location    "6.8";
    object      phi;
}
// * * * * * * * * * * * * * * * * * * * * * * * * * * * * * * * * * * * * * //

dimensions      [1 0 -1 0 0 0 0];

oriented        oriented;

internalField   nonuniform List<scalar> 
23692
(
9.31821e-05
-1.02684e-07
9.33679e-05
-1.85771e-07
9.36277e-05
-2.59746e-07
9.39526e-05
-3.2487e-07
9.43358e-05
-3.83196e-07
9.47718e-05
-4.35968e-07
9.52559e-05
-4.84021e-07
9.5784e-05
-5.2801e-07
9.63525e-05
-5.68454e-07
9.69584e-05
-6.05755e-07
9.75987e-05
-6.40247e-07
9.8271e-05
-6.72209e-07
9.8973e-05
-7.01864e-07
9.97025e-05
-7.29409e-07
0.000100458
-7.55003e-07
0.000101237
-7.78787e-07
0.000102038
-8.00878e-07
0.000102859
-8.21379e-07
0.0001037
-8.40377e-07
0.000104558
-8.57948e-07
0.000105432
-8.74156e-07
0.000106321
-8.89059e-07
0.000107224
-9.02707e-07
0.000108139
-9.15141e-07
0.000109066
-9.26399e-07
0.000110002
-9.36514e-07
0.000110948
-9.45513e-07
0.000111902
-9.53423e-07
0.000112862
-9.60261e-07
0.000113828
-9.66048e-07
0.000114799
-9.70796e-07
0.000115774
-9.74519e-07
0.000116751
-9.77225e-07
0.00011773
-9.78921e-07
0.00011871
-9.79612e-07
0.000119689
-9.79297e-07
0.000120668
-9.77978e-07
0.000121643
-9.75647e-07
0.000122616
-9.723e-07
0.000123584
-9.67925e-07
0.000124546
-9.62507e-07
0.000125503
-9.56029e-07
0.000126451
-9.48469e-07
0.000127391
-9.39795e-07
0.000128321
-9.29976e-07
0.00012924
-9.1897e-07
0.000130147
-9.0673e-07
0.00013104
-8.93198e-07
0.000131919
-8.78305e-07
0.000132781
-8.61973e-07
0.000133625
-8.44107e-07
0.00013445
-8.24595e-07
0.000135253
-8.03307e-07
0.000136033
-7.80089e-07
0.000136788
-7.54753e-07
0.000137515
-7.27082e-07
0.000138212
-6.96813e-07
0.000138876
-6.63629e-07
0.000139503
-6.27148e-07
0.00014009
-5.86903e-07
0.000140632
-5.42323e-07
0.000141125
-4.92702e-07
0.000141562
-4.37158e-07
0.000141937
-3.74578e-07
0.00014224
-3.03545e-07
0.000142462
-2.22226e-07
0.000142591
-1.28229e-07
0.000142609
-1.83893e-08
0.000142497
1.11661e-07
0.000142229
2.67961e-07
0.00014177
4.59139e-07
0.000141073
6.97724e-07
0.00014007
1.00246e-06
0.000138668
1.40222e-06
0.000136725
1.94276e-06
0.000134026
2.69879e-06
0.000130231
3.79522e-06
0.000124784
5.44693e-06
0.000116733
8.05124e-06
0.000104306
1.24267e-05
2.09332e-05
8.3373e-05
9.97061e-05
-2.09823e-07
9.99038e-05
-3.83426e-07
0.000100181
-5.36784e-07
0.000100528
-6.71559e-07
0.000100937
-7.92309e-07
0.000101402
-9.01552e-07
0.000101919
-1.00101e-06
0.000102484
-1.09205e-06
0.000103091
-1.17574e-06
0.000103738
-1.25293e-06
0.000104422
-1.3243e-06
0.000105141
-1.39042e-06
0.000105891
-1.45178e-06
0.00010667
-1.50876e-06
0.000107477
-1.5617e-06
0.000108309
-1.6109e-06
0.000109165
-1.65659e-06
0.000110043
-1.69898e-06
0.000110941
-1.73827e-06
0.000111858
-1.77459e-06
0.000112792
-1.8081e-06
0.000113742
-1.83891e-06
0.000114706
-1.86711e-06
0.000115684
-1.8928e-06
0.000116674
-1.91606e-06
0.000117674
-1.93695e-06
0.000118685
-1.95553e-06
0.000119703
-1.97185e-06
0.000120729
-1.98595e-06
0.000121761
-1.99788e-06
0.000122798
-2.00766e-06
0.000123839
-2.01531e-06
0.000124883
-2.02086e-06
0.000125928
-2.02432e-06
0.000126975
-2.02569e-06
0.00012802
-2.02499e-06
0.000129065
-2.02221e-06
0.000130107
-2.01733e-06
0.000131145
-2.01035e-06
0.000132178
-2.00124e-06
0.000133206
-1.98998e-06
0.000134226
-1.97652e-06
0.000135239
-1.96083e-06
0.000136242
-1.94283e-06
0.000137235
-1.92247e-06
0.000138215
-1.89966e-06
0.000139183
-1.87429e-06
0.000140136
-1.84626e-06
0.000141073
-1.81542e-06
0.000141993
-1.78161e-06
0.000142894
-1.74465e-06
0.000143774
-1.70429e-06
0.000144631
-1.66027e-06
0.000145463
-1.61229e-06
0.000146268
-1.55996e-06
0.000147044
-1.50283e-06
0.000147788
-1.44038e-06
0.000148496
-1.37196e-06
0.000149166
-1.2968e-06
0.000149793
-1.21396e-06
0.000150373
-1.1223e-06
0.0001509
-1.02038e-06
0.00015137
-9.0647e-07
0.000151774
-7.78338e-07
0.000152103
-6.33184e-07
0.000152348
-4.67411e-07
0.000152497
-2.76341e-07
0.000152532
-5.38242e-08
0.000152435
2.08403e-07
0.000152182
5.21704e-07
0.000151739
9.01964e-07
0.000151065
1.37175e-06
0.000150103
1.96382e-06
0.000148779
2.7267e-06
0.000146988
3.73366e-06
0.00014459
5.09674e-06
0.000141398
6.98728e-06
0.000137181
9.66338e-06
0.000131726
1.3507e-05
0.000125162
1.89899e-05
2.59446e-05
0.000120151
0.000106686
-3.20773e-07
0.000106895
-5.92699e-07
0.00010719
-8.30906e-07
0.000107558
-1.04037e-06
0.000107994
-1.22797e-06
0.00010849
-1.39763e-06
0.000109041
-1.55207e-06
0.000109643
-1.69342e-06
0.00011029
-1.82334e-06
0.000110981
-1.94315e-06
0.000111711
-2.05393e-06
0.000112477
-2.15654e-06
0.000113277
-2.25175e-06
0.000114108
-2.34015e-06
0.000114969
-2.42228e-06
0.000115857
-2.49858e-06
0.00011677
-2.56943e-06
0.000117706
-2.63517e-06
0.000118664
-2.69607e-06
0.000119642
-2.75237e-06
0.000120638
-2.80429e-06
0.000121652
-2.85202e-06
0.00012268
-2.89569e-06
0.000123723
-2.93547e-06
0.000124779
-2.97146e-06
0.000125846
-3.00378e-06
0.000126923
-3.0325e-06
0.000128009
-3.05772e-06
0.000129103
-3.07949e-06
0.000130203
-3.09787e-06
0.000131308
-3.11292e-06
0.000132418
-3.12467e-06
0.00013353
-3.13315e-06
0.000134645
-3.13837e-06
0.000135759
-3.14037e-06
0.000136874
-3.13914e-06
0.000137986
-3.13467e-06
0.000139096
-3.12696e-06
0.000140202
-3.11598e-06
0.000141302
-3.10171e-06
0.000142397
-3.08408e-06
0.000143483
-3.06306e-06
0.000144561
-3.03856e-06
0.000145629
-3.0105e-06
0.000146685
-2.97877e-06
0.000147729
-2.94325e-06
0.000148759
-2.90378e-06
0.000149773
-2.86019e-06
0.00015077
-2.81226e-06
0.000151748
-2.75974e-06
0.000152706
-2.70236e-06
0.000153641
-2.63975e-06
0.000154552
-2.57151e-06
0.000155437
-2.49717e-06
0.000156294
-2.41616e-06
0.000157119
-2.32781e-06
0.00015791
-2.23132e-06
0.000158664
-2.12572e-06
0.000159377
-2.00986e-06
0.000160045
-1.88235e-06
0.000160664
-1.74148e-06
0.000161229
-1.58517e-06
0.000161734
-1.41083e-06
0.00016217
-1.21525e-06
0.000162532
-9.94384e-07
0.000162807
-7.43077e-07
0.000162986
-4.54723e-07
0.000163053
-1.20744e-07
0.000162991
2.70102e-07
0.00016278
7.3291e-07
0.000162394
1.28823e-06
0.000161801
1.96426e-06
0.000160965
2.80015e-06
0.000159841
3.85075e-06
0.000158381
5.1932e-06
0.000156543
6.93506e-06
0.000154308
9.22185e-06
0.000151736
1.2236e-05
0.000149078
1.61642e-05
0.000147037
2.10313e-05
2.61101e-05
0.000146872
0.000114154
-4.3525e-07
0.000114375
-8.13038e-07
0.000114686
-1.14191e-06
0.000115077
-1.43143e-06
0.000115539
-1.6906e-06
0.000116067
-1.92492e-06
0.000116653
-2.13816e-06
0.000117293
-2.33329e-06
0.000117982
-2.51261e-06
0.000118717
-2.67794e-06
0.000119494
-2.83077e-06
0.00012031
-2.97233e-06
0.000121162
-3.10363e-06
0.000122048
-3.22553e-06
0.000122964
-3.33876e-06
0.00012391
-3.44394e-06
0.000124882
-3.54158e-06
0.000125879
-3.63215e-06
0.000126899
-3.71603e-06
0.000127941
-3.79357e-06
0.000129002
-3.86504e-06
0.00013008
-3.9307e-06
0.000131176
-3.99078e-06
0.000132286
-4.04547e-06
0.00013341
-4.09492e-06
0.000134545
-4.13929e-06
0.000135692
-4.17871e-06
0.000136847
-4.21326e-06
0.000138011
-4.24307e-06
0.000139182
-4.26819e-06
0.000140358
-4.2887e-06
0.000141538
-4.30465e-06
0.000142721
-4.31608e-06
0.000143906
-4.32303e-06
0.000145091
-4.32551e-06
0.000146275
-4.32353e-06
0.000147458
-4.3171e-06
0.000148637
-4.30618e-06
0.000149812
-4.29076e-06
0.000150982
-4.27078e-06
0.000152144
-4.2462e-06
0.000153298
-4.21692e-06
0.000154442
-4.18286e-06
0.000155576
-4.1439e-06
0.000156697
-4.0999e-06
0.000157805
-4.05068e-06
0.000158897
-3.99604e-06
0.000159973
-3.93574e-06
0.00016103
-3.8695e-06
0.000162067
-3.79699e-06
0.000163083
-3.71781e-06
0.000164075
-3.63151e-06
0.000165041
-3.53754e-06
0.000165979
-3.43528e-06
0.000166887
-3.32397e-06
0.000167762
-3.20272e-06
0.000168601
-3.07048e-06
0.000169401
-2.926e-06
0.000170159
-2.76776e-06
0.000170871
-2.59395e-06
0.000171532
-2.40239e-06
0.000172137
-2.19041e-06
0.000172681
-1.95472e-06
0.000173157
-1.6913e-06
0.000173558
-1.39512e-06
0.000173875
-1.05989e-06
0.000174098
-6.77638e-07
0.000174215
-2.38256e-07
0.000174214
2.71152e-07
0.00017408
8.67274e-07
0.000173796
1.57204e-06
0.000173346
2.41424e-06
0.000172715
3.4316e-06
0.000171892
4.67341e-06
0.000170882
6.20298e-06
0.000169718
8.09889e-06
0.000168489
1.04513e-05
0.00016738
1.33451e-05
0.000166733
1.68111e-05
0.000167063
2.07012e-05
2.44246e-05
0.000168748
0.000122145
-5.53106e-07
0.000122376
-1.04399e-06
0.000122704
-1.46953e-06
0.000123117
-1.84471e-06
0.000123607
-2.18047e-06
0.000124166
-2.48394e-06
0.000124788
-2.76003e-06
0.000125467
-3.01262e-06
0.0001262
-3.24468e-06
0.00012698
-3.45859e-06
0.000127806
-3.65629e-06
0.000128673
-3.83936e-06
0.000129579
-4.00912e-06
0.00013052
-4.16669e-06
0.000131495
-4.31302e-06
0.0001325
-4.4489e-06
0.000133533
-4.57502e-06
0.000134593
-4.69195e-06
0.000135678
-4.80022e-06
0.000136785
-4.90025e-06
0.000137912
-4.99243e-06
0.000139059
-5.07708e-06
0.000140223
-5.15448e-06
0.000141402
-5.22489e-06
0.000142596
-5.28852e-06
0.000143802
-5.34555e-06
0.00014502
-5.39616e-06
0.000146247
-5.44048e-06
0.000147483
-5.47863e-06
0.000148726
-5.51072e-06
0.000149974
-5.53683e-06
0.000151227
-5.55704e-06
0.000152482
-5.57139e-06
0.000153739
-5.57994e-06
0.000154997
-5.5827e-06
0.000156253
-5.57969e-06
0.000157507
-5.5709e-06
0.000158757
-5.55633e-06
0.000160003
-5.53592e-06
0.000161242
-5.50964e-06
0.000162473
-5.4774e-06
0.000163695
-5.4391e-06
0.000164907
-5.39464e-06
0.000166107
-5.34386e-06
0.000167294
-5.28658e-06
0.000168466
-5.2226e-06
0.000169622
-5.15165e-06
0.00017076
-5.07344e-06
0.000171878
-4.98762e-06
0.000172975
-4.89378e-06
0.000174049
-4.79144e-06
0.000175097
-4.68002e-06
0.000176119
-4.55886e-06
0.000177111
-4.42719e-06
0.000178071
-4.28408e-06
0.000178997
-4.12846e-06
0.000179885
-3.95906e-06
0.000180734
-3.77435e-06
0.000181539
-3.57254e-06
0.000182296
-3.35149e-06
0.000183002
-3.10861e-06
0.000183653
-2.84079e-06
0.000184242
-2.54428e-06
0.000184766
-2.21448e-06
0.000185216
-1.84579e-06
0.000185588
-1.43131e-06
0.000185873
-9.62485e-07
0.000186063
-4.28758e-07
0.000186151
1.82909e-07
0.00018613
8.88661e-07
0.000185993
1.70857e-06
0.00018574
2.66775e-06
0.000185375
3.79686e-06
0.000184916
5.13255e-06
0.000184402
6.71677e-06
0.000183907
8.59385e-06
0.000183556
1.08025e-05
0.000183543
1.33578e-05
0.000184138
1.62159e-05
0.00018563
1.92091e-05
2.19525e-05
0.000188102
0.000130695
-6.74336e-07
0.000130937
-1.28519e-06
0.000131281
-1.81352e-06
0.000131716
-2.28009e-06
0.000132233
-2.6977e-06
0.000132825
-3.07503e-06
0.000133483
-3.41826e-06
0.000134202
-3.73217e-06
0.000134978
-4.02051e-06
0.000135806
-4.28622e-06
0.000136682
-4.53172e-06
0.000137601
-4.75899e-06
0.000138562
-4.96969e-06
0.000139561
-5.1652e-06
0.000140595
-5.34669e-06
0.000141661
-5.51517e-06
0.000142758
-5.67149e-06
0.000143882
-5.81637e-06
0.000145033
-5.95046e-06
0.000146207
-6.07429e-06
0.000147403
-6.18833e-06
0.000148619
-6.29299e-06
0.000149854
-6.38864e-06
0.000151105
-6.47557e-06
0.00015237
-6.55406e-06
0.000153649
-6.62434e-06
0.00015494
-6.68662e-06
0.000156241
-6.74107e-06
0.00015755
-6.78785e-06
0.000158867
-6.82708e-06
0.000160189
-6.85887e-06
0.000161515
-6.88331e-06
0.000162845
-6.90048e-06
0.000164175
-6.91042e-06
0.000165506
-6.91318e-06
0.000166835
-6.90877e-06
0.000168162
-6.89718e-06
0.000169484
-6.87841e-06
0.000170801
-6.8524e-06
0.00017211
-6.81911e-06
0.000173411
-6.77844e-06
0.000174703
-6.73027e-06
0.000175983
-6.67448e-06
0.00017725
-6.61088e-06
0.000178503
-6.53927e-06
0.00017974
-6.45939e-06
0.000180959
-6.37095e-06
0.000182159
-6.2736e-06
0.000183339
-6.16692e-06
0.000184496
-6.05043e-06
0.000185628
-5.92357e-06
0.000186734
-5.78567e-06
0.000187811
-5.63597e-06
0.000188857
-5.47357e-06
0.000189871
-5.29741e-06
0.000190849
-5.10625e-06
0.000191788
-4.89866e-06
0.000192687
-4.67292e-06
0.000193541
-4.42702e-06
0.000194349
-4.1586e-06
0.000195105
-3.86483e-06
0.000195806
-3.54237e-06
0.000196449
-3.18721e-06
0.00019703
-2.79457e-06
0.000197542
-2.35872e-06
0.000197984
-1.87276e-06
0.00019835
-1.32841e-06
0.000198637
-7.15738e-07
0.000198843
-2.30891e-08
0.000198968
7.63768e-07
0.000199016
1.66028e-06
0.000198998
2.68547e-06
0.000198935
3.86028e-06
0.000198861
5.20685e-06
0.000198831
6.74644e-06
0.000198929
8.49531e-06
0.000199275
1.04574e-05
0.000200021
1.26117e-05
0.000201343
1.48937e-05
0.000203384
1.71683e-05
1.9208e-05
0.000206128
0.000139844
-7.99029e-07
0.000140095
-1.53637e-06
0.000140456
-2.17362e-06
0.000140913
-2.73739e-06
0.000141458
-3.24226e-06
0.000142081
-3.69838e-06
0.000142776
-4.1132e-06
0.000143537
-4.49251e-06
0.000144357
-4.84081e-06
0.000145233
-5.16169e-06
0.000146159
-5.45807e-06
0.000147133
-5.73236e-06
0.00014815
-5.98656e-06
0.000149207
-6.22235e-06
0.000150302
-6.44115e-06
0.000151431
-6.64419e-06
0.000152592
-6.83249e-06
0.000153783
-7.00693e-06
0.000155001
-7.16829e-06
0.000156244
-7.31722e-06
0.00015751
-7.45429e-06
0.000158797
-7.58001e-06
0.000160104
-7.69479e-06
0.000161427
-7.79903e-06
0.000162766
-7.89304e-06
0.000164119
-7.97711e-06
0.000165485
-8.05149e-06
0.00016686
-8.1164e-06
0.000168244
-8.17201e-06
0.000169636
-8.21849e-06
0.000171033
-8.25598e-06
0.000172435
-8.28458e-06
0.000173839
-8.30438e-06
0.000175244
-8.31545e-06
0.000176649
-8.31784e-06
0.000178052
-8.31157e-06
0.000179452
-8.29665e-06
0.000180847
-8.27305e-06
0.000182235
-8.24075e-06
0.000183616
-8.19966e-06
0.000184987
-8.1497e-06
0.000186348
-8.09074e-06
0.000187696
-8.02262e-06
0.000189031
-7.94515e-06
0.00019035
-7.8581e-06
0.000191652
-7.76117e-06
0.000192935
-7.65403e-06
0.000194198
-7.5363e-06
0.000195438
-7.4075e-06
0.000196655
-7.2671e-06
0.000197846
-7.11447e-06
0.000199009
-6.94887e-06
0.000200143
-6.76947e-06
0.000201245
-6.57526e-06
0.000202313
-6.3651e-06
0.000203344
-6.13766e-06
0.000204337
-5.89138e-06
0.000205288
-5.62445e-06
0.000206196
-5.33476e-06
0.000207058
-5.01986e-06
0.00020787
-4.67685e-06
0.00020863
-4.30238e-06
0.000209335
-3.89251e-06
0.000209983
-3.44262e-06
0.000210572
-2.94734e-06
0.000211099
-2.4004e-06
0.000211566
-1.79453e-06
0.000211971
-1.12137e-06
0.00021232
-3.7143e-07
0.000212618
4.65857e-07
0.000212877
1.40119e-06
0.000213116
2.44611e-06
0.000213364
3.61196e-06
0.000213663
4.90829e-06
0.000214069
6.34059e-06
0.000214657
7.90691e-06
0.000215521
9.59301e-06
0.000216767
1.13658e-05
0.000218496
1.31653e-05
0.000220766
1.48976e-05
1.64348e-05
0.00022354
0.000149634
-9.27336e-07
0.000149895
-1.79735e-06
0.000150271
-2.54964e-06
0.00015075
-3.21644e-06
0.000151322
-3.81405e-06
0.000151978
-4.35402e-06
0.000152709
-4.84506e-06
0.000153511
-5.29396e-06
0.000154376
-5.70607e-06
0.000155301
-6.08562e-06
0.000156279
-6.43608e-06
0.000157307
-6.7603e-06
0.000158381
-7.06066e-06
0.000159498
-7.33916e-06
0.000160655
-7.59749e-06
0.000161848
-7.83708e-06
0.000163075
-8.05917e-06
0.000164333
-8.26482e-06
0.000165619
-8.45492e-06
0.000166933
-8.63027e-06
0.00016827
-8.79153e-06
0.00016963
-8.93932e-06
0.000171009
-9.07413e-06
0.000172407
-9.19642e-06
0.000173821
-9.30657e-06
0.000175249
-9.40493e-06
0.000176689
-9.4918e-06
0.000178141
-9.56742e-06
0.000179601
-9.63203e-06
0.000181068
-9.68582e-06
0.000182542
-9.72894e-06
0.000184019
-9.76153e-06
0.000185498
-9.78371e-06
0.000186979
-9.79556e-06
0.000188458
-9.79713e-06
0.000189935
-9.78848e-06
0.000191408
-9.7696e-06
0.000192876
-9.74049e-06
0.000194337
-9.7011e-06
0.000195789
-9.65137e-06
0.00019723
-9.5912e-06
0.00019866
-9.52046e-06
0.000200077
-9.43898e-06
0.000201478
-9.34654e-06
0.000202863
-9.2429e-06
0.00020423
-9.12776e-06
0.000205577
-9.00074e-06
0.000206902
-8.86142e-06
0.000208204
-8.70932e-06
0.000209481
-8.54386e-06
0.000210731
-8.36436e-06
0.000211952
-8.17005e-06
0.000213143
-7.96003e-06
0.000214301
-7.73328e-06
0.000215425
-7.48862e-06
0.000216512
-7.22465e-06
0.00021756
-6.93982e-06
0.000218568
-6.63231e-06
0.000219534
-6.30004e-06
0.000220454
-5.94061e-06
0.000221329
-5.55127e-06
0.000222155
-5.1289e-06
0.000222933
-4.66989e-06
0.00022366
-4.17017e-06
0.000224338
-3.62515e-06
0.000224968
-3.02966e-06
0.000225551
-2.378e-06
0.000226094
-1.66398e-06
0.000226603
-8.80969e-07
0.000227091
-2.23034e-08
0.000227574
9.18654e-07
0.000228074
1.94591e-06
0.000228623
3.06322e-06
0.00022926
4.27101e-06
0.000230036
5.56494e-06
0.000231009
6.93381e-06
0.000232245
8.35703e-06
0.000233809
9.802e-06
0.000235752
1.12221e-05
0.000238093
1.25564e-05
1.37348e-05
0.000240793
0.000160109
-1.05944e-06
0.000160379
-2.06801e-06
0.000160771
-2.94143e-06
0.000161272
-3.717e-06
0.000161871
-4.41289e-06
0.000162559
-5.04185e-06
0.000163328
-5.61382e-06
0.00016417
-6.13666e-06
0.000165081
-6.61653e-06
0.000166054
-7.05837e-06
0.000167084
-7.4662e-06
0.000168167
-7.84336e-06
0.0001693
-8.19262e-06
0.000170477
-8.51631e-06
0.000171696
-8.81642e-06
0.000172954
-9.09462e-06
0.000174247
-9.35235e-06
0.000175574
-9.59085e-06
0.00017693
-9.81118e-06
0.000178314
-1.00143e-05
0.000179724
-1.02009e-05
0.000181156
-1.03717e-05
0.00018261
-1.05274e-05
0.000184082
-1.06685e-05
0.000185571
-1.07953e-05
0.000187075
-1.09084e-05
0.000188592
-1.10081e-05
0.000190119
-1.10947e-05
0.000191656
-1.11684e-05
0.0001932
-1.12294e-05
0.000194749
-1.12781e-05
0.000196302
-1.13144e-05
0.000197857
-1.13386e-05
0.000199413
-1.13508e-05
0.000200967
-1.13511e-05
0.000202518
-1.13394e-05
0.000204065
-1.13159e-05
0.000205605
-1.12805e-05
0.000207137
-1.12332e-05
0.00020866
-1.11739e-05
0.000210171
-1.11025e-05
0.00021167
-1.1019e-05
0.000213154
-1.09231e-05
0.000214623
-1.08146e-05
0.000216073
-1.06932e-05
0.000217504
-1.05587e-05
0.000218914
-1.04107e-05
0.000220302
-1.02487e-05
0.000221665
-1.00722e-05
0.000223002
-9.8807e-06
0.000224311
-9.67344e-06
0.000225591
-9.44967e-06
0.000226839
-9.20849e-06
0.000228055
-8.94889e-06
0.000229236
-8.66969e-06
0.000230381
-8.36958e-06
0.000231488
-8.04704e-06
0.000232557
-7.70038e-06
0.000233584
-7.32767e-06
0.00023457
-6.92674e-06
0.000235514
-6.49518e-06
0.000236416
-6.03028e-06
0.000237275
-5.52907e-06
0.000238093
-4.98829e-06
0.000238873
-4.40441e-06
0.000239617
-3.77371e-06
0.000240331
-3.09233e-06
0.000241023
-2.35642e-06
0.000241705
-1.56237e-06
0.00024239
-7.06974e-07
0.000243096
2.1236e-07
0.000243846
1.19549e-06
0.00024467
2.23983e-06
0.0002456
3.34043e-06
0.000246677
4.48819e-06
0.000247942
5.66887e-06
0.000249437
6.86215e-06
0.000251198
8.04117e-06
0.000253247
9.1727e-06
0.000255584
1.02189e-05
1.11416e-05
0.000258178
0.000171317
-1.19552e-06
0.000171598
-2.34826e-06
0.000172005
-3.34881e-06
0.000172527
-4.23888e-06
0.000173153
-5.03853e-06
0.000173873
-5.76165e-06
0.000174678
-6.41935e-06
0.000175562
-7.02052e-06
0.000176518
-7.57219e-06
0.00017754
-8.08e-06
0.000178622
-8.54857e-06
0.000179761
-8.98174e-06
0.000180951
-9.38269e-06
0.000182189
-9.75412e-06
0.000183471
-1.00983e-05
0.000184794
-1.04172e-05
0.000186154
-1.07124e-05
0.000187549
-1.09854e-05
0.000188976
-1.12375e-05
0.000190431
-1.14696e-05
0.000191913
-1.16826e-05
0.000193419
-1.18775e-05
0.000194947
-1.20549e-05
0.000196494
-1.22154e-05
0.000198059
-1.23595e-05
0.000199638
-1.24878e-05
0.000201231
-1.26005e-05
0.000202835
-1.26981e-05
0.000204448
-1.27809e-05
0.000206068
-1.28492e-05
0.000207693
-1.29031e-05
0.000209322
-1.29429e-05
0.000210952
-1.29688e-05
0.000212582
-1.29808e-05
0.000214211
-1.29791e-05
0.000215835
-1.29638e-05
0.000217454
-1.29348e-05
0.000219067
-1.28923e-05
0.00022067
-1.28362e-05
0.000222262
-1.27664e-05
0.000223843
-1.26828e-05
0.00022541
-1.25854e-05
0.000226961
-1.2474e-05
0.000228495
-1.23483e-05
0.00023001
-1.22082e-05
0.000231505
-1.20533e-05
0.000232977
-1.18832e-05
0.000234426
-1.16976e-05
0.00023585
-1.14958e-05
0.000237247
-1.12775e-05
0.000238616
-1.10419e-05
0.000239955
-1.07883e-05
0.000241262
-1.05158e-05
0.000242537
-1.02235e-05
0.000243777
-9.91031e-06
0.000244983
-9.57505e-06
0.000246152
-9.21638e-06
0.000247285
-8.83281e-06
0.00024838
-8.4227e-06
0.000249438
-7.98427e-06
0.000250458
-7.51557e-06
0.000251442
-7.01453e-06
0.000252392
-6.47895e-06
0.000253311
-5.90656e-06
0.000254201
-5.29507e-06
0.00025507
-4.64227e-06
0.000255924
-3.94617e-06
0.000256773
-3.20515e-06
0.000257628
-2.41815e-06
0.000258506
-1.58495e-06
0.000259425
-7.06249e-07
0.000260405
2.1574e-07
0.000261469
1.17568e-06
0.000262644
2.16517e-06
0.000263959
3.17387e-06
0.000265439
4.18798e-06
0.000267111
5.19041e-06
0.000268991
6.16101e-06
0.000271087
7.07737e-06
0.000273389
7.91652e-06
8.65779e-06
0.000275873
0.000183311
-1.33574e-06
0.0001836
-2.63805e-06
0.000184023
-3.77163e-06
0.000184566
-4.78181e-06
0.000185218
-5.69066e-06
0.00018597
-6.51308e-06
0.000186812
-7.2613e-06
0.000187737
-7.94522e-06
0.000188738
-8.57275e-06
0.000189808
-9.15027e-06
0.000190943
-9.683e-06
0.000192136
-1.01753e-05
0.000193385
-1.06307e-05
0.000194683
-1.10525e-05
0.000196028
-1.1443e-05
0.000197416
-1.18047e-05
0.000198843
-1.21392e-05
0.000200306
-1.24484e-05
0.000201803
-1.27336e-05
0.000203329
-1.2996e-05
0.000204884
-1.32367e-05
0.000206463
-1.34565e-05
0.000208065
-1.36564e-05
0.000209687
-1.38369e-05
0.000211326
-1.39988e-05
0.000212981
-1.41424e-05
0.000214649
-1.42685e-05
0.000216329
-1.43772e-05
0.000218017
-1.44691e-05
0.000219712
-1.45443e-05
0.000221413
-1.46033e-05
0.000223116
-1.46461e-05
0.000224821
-1.46731e-05
0.000226525
-1.46844e-05
0.000228226
-1.46801e-05
0.000229923
-1.46604e-05
0.000231614
-1.46252e-05
0.000233296
-1.45746e-05
0.000234969
-1.45087e-05
0.00023663
-1.44275e-05
0.000238279
-1.43307e-05
0.000239912
-1.42184e-05
0.000241529
-1.40905e-05
0.000243127
-1.39466e-05
0.000244706
-1.37867e-05
0.000246263
-1.36104e-05
0.000247797
-1.34174e-05
0.000249307
-1.32073e-05
0.000250791
-1.29797e-05
0.000252248
-1.27341e-05
0.000253676
-1.24699e-05
0.000255074
-1.21864e-05
0.000256442
-1.18829e-05
0.000257777
-1.15585e-05
0.000259079
-1.12125e-05
0.000260348
-1.08438e-05
0.000261583
-1.04512e-05
0.000262784
-1.00337e-05
0.000263951
-9.59004e-06
0.000265086
-9.11884e-06
0.000266189
-8.61879e-06
0.000267263
-8.08853e-06
0.000268311
-7.52673e-06
0.000269337
-6.93217e-06
0.000270346
-6.30378e-06
0.000271344
-5.64078e-06
0.000272341
-4.94281e-06
0.000273346
-4.21006e-06
0.000274371
-3.44347e-06
0.000275431
-2.64489e-06
0.000276542
-1.81728e-06
0.000277723
-9.64626e-07
0.000278991
-9.22313e-08
0.000280364
7.91626e-07
0.000281861
1.67664e-06
0.000283499
2.55037e-06
0.000285289
3.39995e-06
0.000287239
4.21103e-06
0.000289348
4.96898e-06
0.000291604
5.66013e-06
6.27347e-06
0.000293988
0.000196144
-1.48022e-06
0.000196443
-2.93728e-06
0.000196881
-4.20964e-06
0.000197445
-5.34545e-06
0.000198123
-6.36881e-06
0.000198905
-7.29562e-06
0.000199783
-8.1391e-06
0.000200749
-8.91019e-06
0.000201794
-9.61765e-06
0.000202912
-1.02686e-05
0.000204098
-1.08689e-05
0.000205346
-1.14234e-05
0.000206652
-1.19362e-05
0.000208011
-1.24107e-05
0.000209418
-1.285e-05
0.00021087
-1.32564e-05
0.000212363
-1.36322e-05
0.000213894
-1.39792e-05
0.00021546
-1.42989e-05
0.000217057
-1.45929e-05
0.000218683
-1.48621e-05
0.000220334
-1.51078e-05
0.000222009
-1.53308e-05
0.000223704
-1.5532e-05
0.000225418
-1.57119e-05
0.000227147
-1.58713e-05
0.00022889
-1.60107e-05
0.000230643
-1.61306e-05
0.000232406
-1.62314e-05
0.000234175
-1.63134e-05
0.000235949
-1.6377e-05
0.000237726
-1.64225e-05
0.000239503
-1.645e-05
0.000241279
-1.64599e-05
0.000243052
-1.64523e-05
0.000244819
-1.64273e-05
0.000246579
-1.63851e-05
0.00024833
-1.63256e-05
0.000250071
-1.6249e-05
0.000251799
-1.61552e-05
0.000253513
-1.60443e-05
0.000255211
-1.59161e-05
0.000256891
-1.57706e-05
0.000258552
-1.56077e-05
0.000260193
-1.54271e-05
0.000261811
-1.52286e-05
0.000263406
-1.5012e-05
0.000264976
-1.47769e-05
0.000266519
-1.45231e-05
0.000268036
-1.425e-05
0.000269523
-1.39573e-05
0.000270981
-1.36443e-05
0.000272409
-1.33106e-05
0.000273806
-1.29554e-05
0.000275172
-1.25782e-05
0.000276507
-1.21782e-05
0.00027781
-1.17547e-05
0.000279083
-1.13069e-05
0.000280327
-1.08339e-05
0.000281544
-1.03352e-05
0.000282735
-9.80982e-06
0.000283904
-9.25732e-06
0.000285054
-8.6772e-06
0.000286191
-8.06919e-06
0.000287321
-7.43333e-06
0.00028845
-6.77004e-06
0.000289588
-6.08019e-06
0.000290743
-5.36531e-06
0.000291927
-4.62762e-06
0.000293153
-3.87017e-06
0.000294432
-3.09696e-06
0.000295781
-2.31296e-06
0.000297212
-1.52405e-06
0.000298741
-7.36445e-07
0.000300375
4.18679e-08
0.000302125
8.01095e-07
0.000303993
1.53148e-06
0.000305981
2.22277e-06
0.000308085
2.86543e-06
0.000310293
3.45164e-06
3.9757e-06
0.000312591
0.000209875
-1.629e-06
0.000210183
-3.24579e-06
0.000210636
-4.6625e-06
0.00021122
-5.92932e-06
0.000211924
-7.07237e-06
0.000212737
-8.10852e-06
0.00021365
-9.05195e-06
0.000214654
-9.91453e-06
0.000215743
-1.07059e-05
0.000216909
-1.1434e-05
0.000218145
-1.21052e-05
0.000219447
-1.2725e-05
0.000220809
-1.32979e-05
0.000222226
-1.38278e-05
0.000223695
-1.4318e-05
0.00022521
-1.47713e-05
0.000226768
-1.519e-05
0.000228365
-1.55763e-05
0.000229999
-1.5932e-05
0.000231665
-1.62586e-05
0.00023336
-1.65575e-05
0.000235083
-1.68298e-05
0.000236829
-1.70766e-05
0.000238596
-1.72988e-05
0.000240382
-1.74972e-05
0.000242183
-1.76725e-05
0.000243998
-1.78253e-05
0.000245824
-1.79562e-05
0.000247659
-1.80656e-05
0.0002495
-1.81541e-05
0.000251345
-1.82219e-05
0.000253192
-1.82695e-05
0.00025504
-1.8297e-05
0.000256885
-1.83048e-05
0.000258726
-1.82931e-05
0.000260561
-1.8262e-05
0.000262388
-1.82118e-05
0.000264205
-1.81425e-05
0.000266011
-1.80542e-05
0.000267803
-1.7947e-05
0.00026958
-1.7821e-05
0.00027134
-1.7676e-05
0.000273081
-1.75121e-05
0.000274803
-1.73292e-05
0.000276504
-1.71272e-05
0.000278181
-1.6906e-05
0.000279835
-1.66653e-05
0.000281463
-1.6405e-05
0.000283065
-1.61248e-05
0.00028464
-1.58245e-05
0.000286187
-1.55038e-05
0.000287705
-1.51622e-05
0.000289194
-1.47995e-05
0.000290654
-1.44152e-05
0.000292084
-1.4009e-05
0.000293487
-1.35805e-05
0.000294861
-1.31292e-05
0.00029621
-1.2655e-05
0.000297533
-1.21574e-05
0.000298835
-1.16363e-05
0.000300117
-1.10917e-05
0.000301383
-1.05235e-05
0.000302638
-9.93217e-06
0.000303887
-9.31819e-06
0.000305136
-8.68248e-06
0.000306393
-8.02634e-06
0.000307664
-7.35152e-06
0.000308959
-6.66034e-06
0.000310287
-5.95568e-06
0.000311658
-5.24109e-06
0.000313082
-4.52079e-06
0.000314569
-3.79964e-06
0.000316128
-3.08313e-06
0.000317769
-2.37718e-06
0.000319498
-1.68806e-06
0.000321321
-1.02152e-06
0.000323237
-3.84243e-07
0.000325242
2.17204e-07
0.000327331
7.76643e-07
0.000329494
1.28924e-06
1.75208e-06
0.000331717
0.000224568
-1.78207e-06
0.000224885
-3.56336e-06
0.000225352
-5.12971e-06
0.000225956
-6.53273e-06
0.000226684
-7.80048e-06
0.000227526
-8.95078e-06
0.000228473
-9.99866e-06
0.000229516
-1.0957e-05
0.000230646
-1.18362e-05
0.000231858
-1.2645e-05
0.000233143
-1.33904e-05
0.000234497
-1.40785e-05
0.000235913
-1.47142e-05
0.000237388
-1.53019e-05
0.000238915
-1.58452e-05
0.000240491
-1.63472e-05
0.000242112
-1.68106e-05
0.000243774
-1.72378e-05
0.000245473
-1.76307e-05
0.000247206
-1.7991e-05
0.000248969
-1.83203e-05
0.00025076
-1.862e-05
0.000252574
-1.88911e-05
0.000254411
-1.91347e-05
0.000256266
-1.93518e-05
0.000258137
-1.9543e-05
0.000260021
-1.97092e-05
0.000261916
-1.98509e-05
0.00026382
-1.99688e-05
0.000265729
-2.00633e-05
0.000267642
-2.01348e-05
0.000269557
-2.01838e-05
0.000271471
-2.02106e-05
0.000273382
-2.02155e-05
0.000275288
-2.01989e-05
0.000277187
-2.01609e-05
0.000279078
-2.01018e-05
0.000280958
-2.00218e-05
0.000282825
-1.9921e-05
0.000284677
-1.97995e-05
0.000286514
-1.96574e-05
0.000288333
-1.94948e-05
0.000290133
-1.93118e-05
0.000291913
-1.91083e-05
0.00029367
-1.88844e-05
0.000295404
-1.86401e-05
0.000297114
-1.83751e-05
0.000298799
-1.80896e-05
0.000300458
-1.77834e-05
0.00030209
-1.74564e-05
0.000303695
-1.71085e-05
0.000305273
-1.67396e-05
0.000306823
-1.63495e-05
0.000308346
-1.59381e-05
0.000309843
-1.55055e-05
0.000311314
-1.50514e-05
0.000312761
-1.45761e-05
0.000314185
-1.40795e-05
0.00031559
-1.35618e-05
0.000316977
-1.30235e-05
0.000318351
-1.2465e-05
0.000319714
-1.18869e-05
0.000321072
-1.12902e-05
0.00032243
-1.06761e-05
0.000323794
-1.0046e-05
0.000325169
-9.40196e-06
0.000326564
-8.74609e-06
0.000327985
-8.08109e-06
0.000329439
-7.41004e-06
0.000330935
-6.73648e-06
0.000332478
-6.06436e-06
0.000334077
-5.39797e-06
0.000335736
-4.74193e-06
0.000337459
-4.10102e-06
0.000339251
-3.48008e-06
0.000341114
-2.88381e-06
0.000343046
-2.31673e-06
0.000345046
-1.78258e-06
0.000347107
-1.28432e-06
0.000349221
-8.24562e-07
-4.04514e-07
0.000351377
0.000240289
-1.9393e-06
0.000240615
-3.8896e-06
0.000241096
-5.61059e-06
0.000241718
-7.15476e-06
0.00024247
-8.55195e-06
0.00024334
-9.82097e-06
0.000244319
-1.09777e-05
0.000245398
-1.20357e-05
0.000246569
-1.30066e-05
0.000247823
-1.38995e-05
0.000249155
-1.47223e-05
0.000250559
-1.54815e-05
0.000252027
-1.61826e-05
0.000253556
-1.68304e-05
0.00025514
-1.74289e-05
0.000256775
-1.79814e-05
0.000258455
-1.84911e-05
0.000260178
-1.89604e-05
0.00026194
-1.93917e-05
0.000263736
-1.97867e-05
0.000265563
-2.01473e-05
0.000267418
-2.04748e-05
0.000269298
-2.07707e-05
0.0002712
-2.1036e-05
0.000273121
-2.12718e-05
0.000275057
-2.1479e-05
0.000277007
-2.16584e-05
0.000278967
-2.18107e-05
0.000280935
-2.19365e-05
0.000282909
-2.20365e-05
0.000284885
-2.21112e-05
0.000286863
-2.2161e-05
0.000288839
-2.21863e-05
0.000290812
-2.21877e-05
0.000292778
-2.21653e-05
0.000294737
-2.21195e-05
0.000296686
-2.20507e-05
0.000298624
-2.19591e-05
0.000300548
-2.18448e-05
0.000302457
-2.17082e-05
0.00030435
-2.15494e-05
0.000306224
-2.13685e-05
0.000308078
-2.11658e-05
0.000309911
-2.09413e-05
0.000311722