/*--------------------------------*- C++ -*----------------------------------*\
| =========                 |                                                 |
| \\      /  F ield         | OpenFOAM: The Open Source CFD Toolbox           |
|  \\    /   O peration     | Version:  2106                                  |
|   \\  /    A nd           | Website:  www.openfoam.com                      |
|    \\/     M anipulation  |                                                 |
\*---------------------------------------------------------------------------*/
FoamFile
{
    version     2.0;
    format      ascii;
    arch        "LSB;label=32;scalar=64";
    class       volScalarField;
    location    "6.8";
    object      T;
}
// * * * * * * * * * * * * * * * * * * * * * * * * * * * * * * * * * * * * * //

dimensions      [0 0 0 1 0 0 0];

internalField   nonuniform List<scalar> 
12013
(
300.003
300.01
300.018
300.025
300.033
300.041
300.05
300.059
300.068
300.078
300.088
300.098
300.109
300.12
300.131
300.143
300.156
300.169
300.182
300.196
300.21
300.225
300.24
300.256
300.272
300.289
300.306
300.324
300.342
300.361
300.381
300.401
300.422
300.443
300.465
300.488
300.511
300.535
300.56
300.586
300.612
300.639
300.667
300.695
300.724
300.755
300.786
300.818
300.85
300.884
300.919
300.954
300.991
301.029
301.068
301.108
301.149
301.191
301.235
301.28
301.326
301.373
301.423
301.473
301.526
301.58
301.636
301.695
301.755
301.818
301.883
301.952
302.023
302.099
302.178
302.263
302.354
302.452
302.561
302.685
302.833
300.003
300.01
300.018
300.025
300.033
300.041
300.05
300.059
300.068
300.078
300.088
300.098
300.109
300.12
300.131
300.143
300.156
300.169
300.182
300.196
300.21
300.225
300.24
300.256
300.272
300.289
300.306
300.324
300.342
300.361
300.381
300.401
300.422
300.443
300.465
300.488
300.511
300.535
300.56
300.586
300.612
300.639
300.666
300.695
300.724
300.755
300.786
300.817
300.85
300.884
300.919
300.954
300.991
301.029
301.067
301.107
301.148
301.191
301.234
301.279
301.325
301.373
301.422
301.473
301.525
301.579
301.635
301.693
301.754
301.816
301.882
301.95
302.021
302.096
302.175
302.258
302.348
302.444
302.548
302.663
302.79
300.003
300.01
300.018
300.025
300.033
300.041
300.05
300.059
300.068
300.078
300.088
300.098
300.109
300.12
300.131
300.143
300.156
300.169
300.182
300.196
300.21
300.225
300.24
300.256
300.272
300.289
300.306
300.324
300.342
300.361
300.381
300.401
300.422
300.443
300.465
300.488
300.511
300.535
300.56
300.585
300.612
300.639
300.666
300.695
300.724
300.754
300.785
300.817
300.85
300.884
300.918
300.954
300.991
301.028
301.067
301.107
301.148
301.19
301.233
301.278
301.324
301.372
301.421
301.471
301.524
301.578
301.633
301.691
301.751
301.813
301.878
301.945
302.016
302.089
302.167
302.249
302.335
302.427
302.524
302.628
302.736
300.003
300.01
300.018
300.025
300.033
300.041
300.05
300.059
300.068
300.078
300.088
300.098
300.109
300.12
300.131
300.143
300.156
300.169
300.182
300.196
300.21
300.225
300.24
300.256
300.272
300.289
300.306
300.324
300.342
300.361
300.381
300.401
300.422
300.443
300.465
300.488
300.511
300.535
300.56
300.585
300.611
300.638
300.666
300.695
300.724
300.754
300.785
300.817
300.849
300.883
300.918
300.953
300.99
301.027
301.066
301.106
301.147
301.189
301.232
301.277
301.323
301.37
301.419
301.469
301.521
301.575
301.63
301.687
301.747
301.808
301.872
301.938
302.007
302.079
302.155
302.233
302.316
302.402
302.492
302.584
302.678
300.003
300.01
300.018
300.025
300.033
300.041
300.05
300.059
300.068
300.078
300.088
300.098
300.109
300.12
300.131
300.143
300.156
300.169
300.182
300.196
300.21
300.225
300.24
300.256
300.272
300.288
300.306
300.324
300.342
300.361
300.38
300.401
300.421
300.443
300.465
300.487
300.511
300.535
300.56
300.585
300.611
300.638
300.666
300.694
300.723
300.753
300.784
300.816
300.849
300.882
300.917
300.952
300.989
301.026
301.065
301.105
301.145
301.187
301.23
301.275
301.32
301.367
301.416
301.466
301.517
301.57
301.625
301.682
301.74
301.801
301.863
301.928
301.996
302.065
302.138
302.213
302.291
302.371
302.453
302.536
302.619
300.003
300.01
300.018
300.025
300.033
300.041
300.05
300.059
300.068
300.078
300.088
300.098
300.109
300.12
300.131
300.143
300.156
300.169
300.182
300.196
300.21
300.225
300.24
300.255
300.272
300.288
300.306
300.323
300.342
300.361
300.38
300.4
300.421
300.443
300.465
300.487
300.511
300.534
300.559
300.585
300.611
300.638
300.665
300.694
300.723
300.753
300.784
300.815
300.848
300.881
300.916
300.951
300.987
301.025
301.063
301.103
301.143
301.185
301.228
301.272
301.317
301.364
301.412
301.461
301.512
301.564
301.618
301.674
301.732
301.791
301.852
301.915
301.98
302.047
302.117
302.188
302.261
302.335
302.41
302.485
302.56
300.003
300.01
300.018
300.025
300.033
300.041
300.05
300.059
300.068
300.078
300.088
300.098
300.109
300.12
300.131
300.143
300.156
300.169
300.182
300.196
300.21
300.224
300.24
300.255
300.272
300.288
300.306
300.323
300.342
300.361
300.38
300.4
300.421
300.442
300.464
300.487
300.51
300.534
300.559
300.584
300.61
300.637
300.664
300.693
300.722
300.752
300.783
300.814
300.847
300.88
300.914
300.949
300.986
301.023
301.061
301.1
301.14
301.182
301.224
301.268
301.313
301.359
301.406
301.455
301.505
301.557
301.61
301.664
301.721
301.778
301.838
301.899
301.961
302.025
302.091
302.158
302.226
302.295
302.364
302.432
302.5
300.003
300.01
300.018
300.025
300.033
300.041
300.05
300.059
300.068
300.078
300.088
300.098
300.109
300.12
300.131
300.143
300.156
300.168
300.182
300.195
300.21
300.224
300.24
300.255
300.271
300.288
300.305
300.323
300.341
300.36
300.38
300.4
300.421
300.442
300.464
300.486
300.51
300.534
300.558
300.583
300.609
300.636
300.664
300.692
300.721
300.751
300.781
300.813
300.845
300.878
300.912
300.947
300.983
301.02
301.058
301.097
301.137
301.178
301.22
301.263
301.307
301.353
301.4
301.448
301.497
301.547
301.599
301.652
301.707
301.763
301.82
301.879
301.939
302
302.062
302.125
302.188
302.252
302.315
302.378
302.439
300.003
300.01
300.018
300.025
300.033
300.041
300.05
300.059
300.068
300.078
300.088
300.098
300.109
300.12
300.131
300.143
300.156
300.168
300.182
300.195
300.21
300.224
300.239
300.255
300.271
300.288
300.305
300.323
300.341
300.36
300.38
300.4
300.42
300.441
300.463
300.486
300.509
300.533
300.557
300.583
300.608
300.635
300.662
300.691
300.719
300.749
300.78
300.811
300.843
300.876
300.91
300.945
300.98
301.017
301.054
301.093
301.132
301.173
301.214
301.257
301.301
301.345
301.391
301.438
301.487
301.536
301.586
301.638
301.691
301.745
301.8
301.856
301.913
301.971
302.029
302.088
302.147
302.206
302.265
302.322
302.379
300.003
300.01
300.018
300.025
300.033
300.041
300.05
300.059
300.068
300.078
300.088
300.098
300.109
300.12
300.131
300.143
300.155
300.168
300.182
300.195
300.209
300.224
300.239
300.255
300.271
300.288
300.305
300.323
300.341
300.36
300.379
300.399
300.42
300.441
300.463
300.485
300.508
300.532
300.556
300.582
300.607
300.634
300.661
300.689
300.718
300.747
300.778
300.809
300.841
300.873
300.907
300.941
300.977
301.013
301.05
301.088
301.127
301.167
301.208
301.25
301.293
301.336
301.381
301.427
301.474
301.522
301.571
301.621
301.672
301.724
301.776
301.83
301.884
301.938
301.993
302.048
302.103
302.158
302.212
302.265
302.318
300.003
300.01
300.018
300.025
300.033
300.041
300.05
300.059
300.068
300.078
300.087
300.098
300.108
300.12
300.131
300.143
300.155
300.168
300.181
300.195
300.209
300.224
300.239
300.255
300.271
300.287
300.304
300.322
300.34
300.359
300.379
300.398
300.419
300.44
300.462
300.484
300.507
300.531
300.555
300.58
300.606
300.632
300.659
300.687
300.716
300.745
300.775
300.806
300.838
300.87
300.903
300.937
300.972
301.008
301.044
301.082
301.12
301.16
301.2
301.241
301.283
301.326
301.369
301.414
301.46
301.506
301.553
301.602
301.65
301.7
301.75
301.801
301.852
301.903
301.955
302.006
302.057
302.108
302.158
302.208
302.256
300.003
300.01
300.018
300.025
300.033
300.041
300.05
300.059
300.068
300.077
300.087
300.098
300.108
300.119
300.131
300.143
300.155
300.168
300.181
300.195
300.209
300.224
300.239
300.254
300.27
300.287
300.304
300.322
300.34
300.359
300.378
300.398
300.418
300.439
300.461
300.483
300.506
300.53
300.554
300.579
300.604
300.63
300.657
300.685
300.713
300.742
300.772
300.803
300.834
300.866
300.899
300.932
300.967
301.002
301.038
301.075
301.113
301.151
301.19
301.23
301.271
301.313
301.356
301.399
301.443
301.488
301.533
301.579
301.626
301.673
301.721
301.769
301.817
301.865
301.914
301.962
302.009
302.057
302.103
302.149
302.194
300.003
300.01
300.018
300.025
300.033
300.041
300.05
300.059
300.068
300.077
300.087
300.098
300.108
300.119
300.131
300.143
300.155
300.168
300.181
300.195
300.209
300.223
300.238
300.254
300.27
300.286
300.304
300.321
300.339
300.358
300.377
300.397
300.417
300.438
300.46
300.482
300.505
300.528
300.552
300.577
300.602
300.628
300.655
300.682
300.71
300.739
300.768
300.799
300.83
300.861
300.894
300.927
300.96
300.995
301.03
301.067
301.103
301.141
301.179
301.219
301.258
301.299
301.34
301.382
301.424
301.467
301.511
301.555
301.599
301.644
301.689
301.734
301.78
301.825
301.87
301.915
301.96
302.004
302.047
302.09
302.132
300.003
300.01
300.018
300.025
300.033
300.041
300.05
300.059
300.068
300.077
300.087
300.097
300.108
300.119
300.131
300.143
300.155
300.168
300.181
300.194
300.208
300.223
300.238
300.253
300.269
300.286
300.303
300.32
300.338
300.357
300.376
300.396
300.416
300.437
300.458
300.48
300.503
300.526
300.55
300.575
300.6
300.625
300.652
300.679
300.707
300.735
300.764
300.794
300.824
300.856
300.887
300.92
300.953
300.987
301.022
301.057
301.093
301.13
301.167
301.205
301.243
301.283
301.322
301.362
301.403
301.444
301.486
301.528
301.57
301.613
301.655
301.698
301.74
301.783
301.825
301.867
301.909
301.95
301.99
302.03
302.069
300.003
300.01
300.018
300.025
300.033
300.041
300.05
300.058
300.068
300.077
300.087
300.097
300.108
300.119
300.13
300.142
300.155
300.167
300.18
300.194
300.208
300.222
300.237
300.253
300.269
300.285
300.302
300.32
300.338
300.356
300.375
300.395
300.415
300.435
300.457
300.479
300.501
300.524
300.548
300.572
300.597
300.622
300.648
300.675
300.703
300.731
300.759
300.788
300.818
300.849
300.88
300.912
300.945
300.978
301.012
301.046
301.081
301.117
301.153
301.189
301.227
301.264
301.302
301.341
301.38
301.419
301.459
301.499
301.539
301.579
301.619
301.659
301.699
301.739
301.778
301.817
301.856
301.894
301.932
301.969
302.006
300.003
300.01
300.018
300.025
300.033
300.041
300.05
300.058
300.068
300.077
300.087
300.097
300.108
300.119
300.13
300.142
300.154
300.167
300.18
300.194
300.207
300.222
300.237
300.252
300.268
300.284
300.301
300.319
300.336
300.355
300.374
300.393
300.413
300.434
300.455
300.476
300.499
300.522
300.545
300.569
300.593
300.619
300.644
300.671
300.698
300.725
300.753
300.782
300.812
300.841
300.872
300.903
300.935
300.967
301
301.033
301.067
301.102
301.137
301.172
301.208
301.244
301.281
301.317
301.355
301.392
301.43
301.467
301.505
301.543
301.581
301.618
301.656
301.693
301.73
301.767
301.803
301.838
301.874
301.908
301.942
300.003
300.01
300.018
300.025
300.033
300.041
300.049
300.058
300.067
300.077
300.087
300.097
300.108
300.119
300.13
300.142
300.154
300.166
300.18
300.193
300.207
300.221
300.236
300.251
300.267
300.283
300.3
300.317
300.335
300.353
300.372
300.391
300.411
300.432
300.453
300.474
300.496
300.519
300.542
300.565
300.59
300.614
300.64
300.666
300.692
300.719
300.747
300.775
300.804
300.833
300.863
300.893
300.924
300.955
300.987
301.019
301.052
301.085
301.119
301.153
301.187
301.222
301.257
301.292
301.327
301.363
301.398
301.434
301.47
301.505
301.541
301.576
301.611
301.646
301.68
301.715
301.748
301.782
301.815
301.847
301.879
300.003
300.01
300.017
300.025
300.033
300.041
300.049
300.058
300.067
300.077
300.087
300.097
300.107
300.118
300.13
300.141
300.153
300.166
300.179
300.192
300.206
300.221
300.235
300.25
300.266
300.282
300.299
300.316
300.334
300.352
300.37
300.39
300.409
300.429
300.45
300.471
300.493
300.515
300.538
300.561
300.585
300.609
300.634
300.66
300.686
300.712
300.739
300.767
300.795
300.823
300.852
300.882
300.912
300.942
300.973
301.004
301.035
301.067
301.1
301.132
301.165
301.198
301.231
301.264
301.298
301.332
301.365
301.399
301.432
301.466
301.499
301.532
301.565
301.598
301.63
301.662
301.693
301.724
301.755
301.785
301.815
300.003
300.01
300.017
300.025
300.033
300.041
300.049
300.058
300.067
300.076
300.086
300.096
300.107
300.118
300.129
300.141
300.153
300.165
300.178
300.192
300.205
300.22
300.234
300.249
300.265
300.281
300.298
300.314
300.332
300.35
300.368
300.387
300.407
300.427
300.447
300.468
300.489
300.511
300.534
300.556
300.58
300.604
300.628
300.653
300.678
300.704
300.731
300.757
300.785
300.812
300.841
300.869
300.898
300.927
300.957
300.987
301.017
301.048
301.079
301.11
301.141
301.172
301.204
301.235
301.267
301.299
301.33
301.362
301.394
301.425
301.456
301.487
301.518
301.548
301.578
301.608
301.638
301.667
301.695
301.724
301.751
300.003
300.01
300.017
300.025
300.033
300.041
300.049
300.058
300.067
300.076
300.086
300.096
300.107
300.117
300.129
300.14
300.152
300.165
300.178
300.191
300.205
300.219
300.233
300.248
300.264
300.28
300.296
300.313
300.33
300.348
300.366
300.385
300.404
300.423
300.443
300.464
300.485
300.507
300.529
300.551
300.574
300.597
300.621
300.646
300.67
300.696
300.721
300.747
300.774
300.8
300.828
300.855
300.883
300.911
300.94
300.968
300.997
301.026
301.056
301.085
301.115
301.145
301.175
301.205
301.235
301.264
301.294
301.324
301.353
301.383
301.412
301.441
301.47
301.498
301.527
301.554
301.582
301.609
301.636
301.662
301.688
300.003
300.01
300.017
300.025
300.032
300.041
300.049
300.058
300.067
300.076
300.086
300.096
300.106
300.117
300.128
300.14
300.152
300.164
300.177
300.19
300.203
300.217
300.232
300.247
300.262
300.278
300.294
300.311
300.328
300.345
300.363
300.382
300.4
300.42
300.439
300.46
300.48
300.501
300.523
300.545
300.567
300.59
300.614
300.637
300.661
300.686
300.711
300.736
300.761
300.787
300.813
300.84
300.867
300.894
300.921
300.948
300.976
301.004
301.032
301.06
301.088
301.116
301.144
301.173
301.201
301.229
301.257
301.285
301.312
301.34
301.367
301.394
301.421
301.448
301.474
301.5
301.526
301.551
301.576
301.601
301.625
300.003
300.01
300.017
300.025
300.032
300.04
300.049
300.057
300.066
300.076
300.085
300.095
300.106
300.116
300.127
300.139
300.151
300.163
300.176
300.189
300.202
300.216
300.23
300.245
300.26
300.276
300.292
300.308
300.325
300.342
300.36
300.378
300.397
300.416
300.435
300.455
300.475
300.496
300.517
300.538
300.56
300.582
300.605
300.628
300.651
300.675
300.699
300.723
300.748
300.773
300.798
300.823
300.849
300.875
300.901
300.927
300.953
300.98
301.006
301.033
301.059
301.086
301.113
301.139
301.166
301.192
301.218
301.245
301.271
301.296
301.322
301.347
301.372
301.397
301.422
301.446
301.47
301.494
301.517
301.54
301.562
300.003
300.01
300.017
300.025
300.032
300.04
300.048
300.057
300.066
300.075
300.085
300.095
300.105
300.116
300.127
300.138
300.15
300.162
300.175
300.188
300.201
300.215
300.229
300.243
300.258
300.274
300.289
300.305
300.322
300.339
300.356
300.374
300.392
300.411
300.43
300.449
300.469
300.489
300.51
300.531
300.552
300.574
300.596
300.618
300.64
300.663
300.686
300.71
300.733
300.757
300.781
300.806
300.83
300.855
300.88
300.905
300.93
300.955
300.98
301.005
301.03
301.055
301.08
301.105
301.13
301.155
301.179
301.204
301.228
301.252
301.276
301.3
301.323
301.346
301.369
301.392
301.414
301.436
301.458
301.479
301.501
300.003
300.01
300.017
300.024
300.032
300.04
300.048
300.057
300.066
300.075
300.084
300.094
300.104
300.115
300.126
300.137
300.149
300.161
300.173
300.186
300.199
300.213
300.227
300.241
300.256
300.271
300.287
300.302
300.319
300.335
300.352
300.37
300.388
300.406
300.425
300.443
300.463
300.482
300.502
300.523
300.543
300.564
300.585
300.607
300.629
300.651
300.673
300.695
300.718
300.741
300.764
300.787
300.81
300.834
300.857
300.881
300.905
300.928
300.952
300.976
300.999
301.023
301.047
301.07
301.093
301.117
301.14
301.163
301.185
301.208
301.23
301.252
301.274
301.296
301.317
301.338
301.359
301.38
301.4
301.42
301.44
300.003
300.01
300.017
300.024
300.032
300.04
300.048
300.056
300.065
300.074
300.084
300.094
300.104
300.114
300.125
300.136
300.148
300.16
300.172
300.185
300.198
300.211
300.225
300.239
300.253
300.268
300.283
300.299
300.315
300.331
300.348
300.365
300.383
300.4
300.418
300.437
300.456
300.475
300.494
300.514
300.534
300.554
300.574
300.595
300.616
300.637
300.658
300.68
300.702
300.723
300.745
300.767
300.79
300.812
300.834
300.857
300.879
300.901
300.924
300.946
300.968
300.991
301.013
301.035
301.057
301.078
301.1
301.121
301.143
301.164
301.185
301.205
301.226
301.246
301.266
301.285
301.305
301.324
301.343
301.362
301.38
300.003
300.01
300.017
300.024
300.032
300.039
300.047
300.056
300.065
300.074
300.083
300.093
300.103
300.113
300.124
300.135
300.146
300.158
300.17
300.183
300.196
300.209
300.222
300.236
300.25
300.265
300.28
300.295
300.311
300.327
300.343
300.36
300.377
300.394
300.412
300.43
300.448
300.466
300.485
300.504
300.523
300.543
300.562
300.582
300.602
300.623
300.643
300.664
300.684
300.705
300.726
300.747
300.768
300.789
300.81
300.832
300.853
300.874
300.895
300.916
300.937
300.958
300.978
300.999
301.02
301.04
301.06
301.08
301.1
301.12
301.139
301.159
301.178
301.196
301.215
301.233
301.252
301.269
301.287
301.305
301.322
300.003
300.01
300.017
300.024
300.031
300.039
300.047
300.055
300.064
300.073
300.082
300.092
300.102
300.112
300.123
300.134
300.145
300.157
300.168
300.181
300.193
300.206
300.22
300.233
300.247
300.262
300.276
300.291
300.307
300.322
300.338
300.354
300.371
300.388
300.405
300.422
300.44
300.457
300.476
300.494
300.512
300.531
300.55
300.569
300.588
300.608
300.627
300.647
300.667
300.686
300.706
300.726
300.746
300.766
300.786
300.806
300.826
300.846
300.866
300.885
300.905
300.925
300.944
300.964
300.983
301.002
301.021
301.039
301.058
301.076
301.095
301.113
301.13
301.148
301.165
301.183
301.2
301.216
301.233
301.249
301.265
300.003
300.01
300.017
300.024
300.031
300.039
300.047
300.055
300.063
300.072
300.082
300.091
300.101
300.111
300.121
300.132
300.143
300.155
300.167
300.179
300.191
300.204
300.217
300.23
300.244
300.258
300.272
300.287
300.302
300.317
300.332
300.348
300.364
300.381
300.397
300.414
300.431
300.448
300.466
300.483
300.501
300.519
300.537
300.555
300.574
300.592
300.611
300.629
300.648
300.667
300.686
300.705
300.724
300.743
300.761
300.78
300.799
300.818
300.836
300.855
300.874
300.892
300.91
300.928
300.946
300.964
300.982
300.999
301.017
301.034
301.051
301.068
301.085
301.101
301.117
301.133
301.149
301.165
301.18
301.195
301.21
300.003
300.01
300.016
300.023
300.031
300.038
300.046
300.054
300.063
300.072
300.081
300.09
300.1
300.11
300.12
300.131
300.142
300.153
300.164
300.176
300.188
300.201
300.214
300.227
300.24
300.254
300.268
300.282
300.297
300.311
300.327
300.342
300.357
300.373
300.389
300.405
300.422
300.438
300.455
300.472
300.489
300.506
300.524
300.541
300.559
300.576
300.594
300.612
300.63
300.647
300.665
300.683
300.701
300.719
300.737
300.755
300.772
300.79
300.807
300.825
300.842
300.86
300.877
300.894
300.911
300.927
300.944
300.96
300.977
300.993
301.009
301.024
301.04
301.055
301.071
301.086
301.1
301.115
301.129
301.144
301.158
300.003
300.01
300.016
300.023
300.03
300.038
300.046
300.054
300.062
300.071
300.08
300.089
300.098
300.108
300.118
300.129
300.14
300.151
300.162
300.174
300.186
300.198
300.21
300.223
300.236
300.25
300.263
300.277
300.291
300.306
300.32
300.335
300.35
300.365
300.381
300.396
300.412
300.428
300.444
300.461
300.477
300.493
300.51
300.527
300.543
300.56
300.577
300.594
300.611
300.628
300.645
300.662
300.679
300.696
300.712
300.729
300.746
300.762
300.779
300.795
300.812
300.828
300.844
300.86
300.876
300.892
300.907
300.923
300.938
300.953
300.968
300.983
300.997
301.012
301.026
301.04
301.054
301.067
301.081
301.094
301.107
300.003
300.009
300.016
300.023
300.03
300.037
300.045
300.053
300.061
300.07
300.079
300.088
300.097
300.107
300.117
300.127
300.138
300.149
300.16
300.171
300.183
300.195
300.207
300.219
300.232
300.245
300.259
300.272
300.286
300.3
300.314
300.328
300.343
300.357
300.372
300.387
300.403
300.418
300.433
300.449
300.465
300.48
300.496
300.512
300.528
300.544
300.56
300.576
300.592
300.609
300.625
300.641
300.657
300.673
300.689
300.704
300.72
300.736
300.751
300.767
300.782
300.798
300.813
300.828
300.843
300.857
300.872
300.887
300.901
300.915
300.929
300.943
300.957
300.97
300.983
300.997
301.01
301.022
301.035
301.047
301.06
300.003
300.009
300.016
300.023
300.03
300.037
300.045
300.052
300.06
300.069
300.078
300.087
300.096
300.105
300.115
300.125
300.136
300.146
300.157
300.168
300.18
300.191
300.203
300.216
300.228
300.241
300.254
300.267
300.28
300.294
300.307
300.321
300.335
300.349
300.364
300.378
300.393
300.408
300.422
300.437
300.452
300.468
300.483
300.498
300.513
300.528
300.544
300.559
300.574
300.59
300.605
300.62
300.635
300.65
300.665
300.68
300.695
300.71
300.725
300.74
300.754
300.768
300.783
300.797
300.811
300.825
300.839
300.852
300.866
300.879
300.892
300.905
300.918
300.931
300.943
300.956
300.968
300.98
300.992
301.004
301.015
300.003
300.009
300.016
300.022
300.029
300.036
300.044
300.052
300.06
300.068
300.076
300.085
300.094
300.104
300.113
300.123
300.133
300.144
300.155
300.165
300.177
300.188
300.2
300.212
300.224
300.236
300.249
300.261
300.274
300.287
300.301
300.314
300.328
300.341
300.355
300.369
300.383
300.397
300.412
300.426
300.44
300.455
300.469
300.484
300.499
300.513
300.528
300.542
300.557
300.571
300.586
300.6
300.615
300.629
300.644
300.658
300.672
300.686
300.7
300.714
300.727
300.741
300.755
300.768
300.781
300.794
300.807
300.82
300.833
300.845
300.858
300.87
300.882
300.894
300.906
300.918
300.929
300.941
300.952
300.963
300.974
300.003
300.009
300.015
300.022
300.029
300.036
300.043
300.051
300.059
300.067
300.075
300.084
300.093
300.102
300.112
300.121
300.131
300.141
300.152
300.163
300.173
300.185
300.196
300.208
300.219
300.231
300.244
300.256
300.269
300.281
300.294
300.307
300.32
300.334
300.347
300.36
300.374
300.388
300.401
300.415
300.429
300.443
300.457
300.471
300.485
300.499
300.513
300.527
300.54
300.554
300.568
300.582
300.596
300.609
300.623
300.636
300.65
300.663
300.676
300.69
300.703
300.716
300.728
300.741
300.754
300.766
300.778
300.791
300.803
300.815
300.826
300.838
300.849
300.861
300.872
300.883
300.894
300.905
300.915
300.926
300.936
300.003
300.009
300.015
300.022
300.028
300.035
300.043
300.05
300.058
300.066
300.074
300.083
300.091
300.1
300.11
300.119
300.129
300.139
300.149
300.16
300.17
300.181
300.192
300.204
300.215
300.227
300.239
300.251
300.263
300.275
300.288
300.3
300.313
300.326
300.339
300.352
300.365
300.378
300.392
300.405
300.418
300.432
300.445
300.458
300.472
300.485
300.499
300.512
300.525
300.538
300.552
300.565
300.578
300.591
300.604
300.617
300.63
300.643
300.655
300.668
300.68
300.692
300.705
300.717
300.729
300.741
300.752
300.764
300.775
300.787
300.798
300.809
300.82
300.831
300.841
300.852
300.862
300.872
300.882
300.892
300.902
300.003
300.009
300.015
300.021
300.028
300.035
300.042
300.049
300.057
300.065
300.073
300.081
300.09
300.099
300.108
300.117
300.127
300.137
300.147
300.157
300.168
300.178
300.189
300.2
300.211
300.223
300.234
300.246
300.258
300.27
300.282
300.294
300.307
300.319
300.332
300.344
300.357
300.37
300.383
300.395
300.408
300.421
300.434
300.447
300.46
300.473
300.486
300.499
300.511
300.524
300.537
300.55
300.562
300.575
300.587
300.6
300.612
300.624
300.636
300.648
300.66
300.672
300.684
300.695
300.707
300.718
300.729
300.74
300.751
300.762
300.773
300.783
300.794
300.804
300.814
300.824
300.834
300.844
300.854
300.863
300.872
300.003
300.009
300.015
300.021
300.028
300.034
300.041
300.049
300.056
300.064
300.072
300.08
300.089
300.097
300.106
300.116
300.125
300.135
300.145
300.155
300.165
300.175
300.186
300.197
300.208
300.219
300.23
300.242
300.253
300.265
300.277
300.289
300.301
300.313
300.325
300.337
300.35
300.362
300.375
300.387
300.4
300.412
300.425
300.437
300.45
300.462
300.475
300.487
300.499
300.512
300.524
300.536
300.548
300.561
300.573
300.585
300.596
300.608
300.62
300.631
300.643
300.654
300.665
300.677
300.688
300.699
300.709
300.72
300.731
300.741
300.751
300.761
300.771
300.781
300.791
300.801
300.81
300.82
300.829
300.838
300.847
300.003
300.009
300.015
300.021
300.027
300.034
300.041
300.048
300.056
300.063
300.071
300.079
300.088
300.096
300.105
300.114
300.123
300.133
300.143
300.152
300.163
300.173
300.183
300.194
300.205
300.216
300.227
300.238
300.249
300.261
300.272
300.284
300.296
300.308
300.32
300.332
300.344
300.356
300.368
300.38
300.392
300.404
300.417
300.429
300.441
300.453
300.465
300.477
300.489
300.501
300.513
300.525
300.537
300.549
300.561
300.572
300.584
300.595
300.606
300.618
300.629
300.64
300.651
300.661
300.672
300.683
300.693
300.703
300.714
300.724
300.734
300.744
300.753
300.763
300.772
300.782
300.791
300.8
300.809
300.818
300.827
300.003
300.008
300.014
300.021
300.027
300.034
300.04
300.048
300.055
300.062
300.07
300.078
300.087
300.095
300.104
300.113
300.122
300.131
300.141
300.151
300.161
300.171
300.181
300.192
300.202
300.213
300.224
300.235
300.246
300.257
300.269
300.28
300.292
300.304
300.315
300.327
300.339
300.351
300.363
300.375
300.387
300.399
300.41
300.422
300.434
300.446
300.458
300.47
300.482
300.493
300.505
300.517
300.528
300.54
300.551
300.563
300.574
300.585
300.596
300.607
300.618
300.629
300.639
300.65
300.66
300.671
300.681
300.691
300.701
300.711
300.72
300.73
300.739
300.749
300.758
300.767
300.776
300.785
300.794
300.802
300.811
300.003
300.008
300.014
300.02
300.027
300.033
300.04
300.047
300.054
300.062
300.07
300.078
300.086
300.094
300.103
300.112
300.121
300.13
300.14
300.149
300.159
300.169
300.18
300.19
300.2
300.211
300.222
300.233
300.244
300.255
300.266
300.278
300.289
300.301
300.312
300.324
300.336
300.347
300.359
300.371
300.383
300.394
300.406
300.418
300.43
300.442
300.453
300.465
300.477
300.488
300.5
300.511
300.522
300.534
300.545
300.556
300.567
300.578
300.589
300.6
300.611
300.621
300.632
300.642
300.652
300.662
300.672
300.682
300.692
300.702
300.711
300.721
300.73
300.739
300.748
300.757
300.766
300.775
300.784
300.792
300.8
300.003
300.008
300.014
300.02
300.027
300.033
300.04
300.047
300.054
300.062
300.069
300.077
300.086
300.094
300.103
300.111
300.12
300.13
300.139
300.149
300.159
300.169
300.179
300.189
300.2
300.21
300.221
300.232
300.243
300.254
300.265
300.276
300.288
300.299
300.311
300.322
300.334
300.346
300.357
300.369
300.381
300.392
300.404
300.416
300.427
300.439
300.451
300.462
300.474
300.485
300.497
300.508
300.519
300.531
300.542
300.553
300.564
300.575
300.586
300.596
300.607
300.617
300.628
300.638
300.648
300.658
300.668
300.678
300.688
300.697
300.707
300.716
300.726
300.735
300.744
300.753
300.761
300.77
300.778
300.787
300.795
303.028
303.157
303.234
303.307
303.37
303.422
303.457
303.497
303.537
303.574
303.605
303.64
303.675
303.709
303.743
303.776
303.807
303.835
303.864
303.894
303.923
303.953
303.982
304.011
304.041
304.069
304.097
304.125
304.153
304.18
304.207
304.234
304.261
304.287
304.313
304.339
304.364
304.39
304.415
304.44
304.465
304.489
304.514
304.542
304.568
304.593
304.617
304.642
304.668
304.694
304.718
304.741
304.765
304.79
304.815
304.841
304.867
304.893
304.919
304.943
304.963
304.986
305.01
305.034
305.059
305.084
305.108
305.133
305.157
305.181
305.205
305.229
305.252
305.276
305.299
305.322
305.345
305.369
305.391
305.415
305.443
305.468
305.491
305.514
305.535
305.556
305.579
305.606
305.63
305.651
305.671
305.694
305.72
305.741
305.765
305.792
305.815
305.836
305.861
305.883
305.903
305.926
305.946
305.968
305.992
306.018
306.04
306.058
306.079
306.098
306.118
306.141
306.164
306.188
306.208
306.224
306.244
306.265
306.286
306.305
306.319
306.336
306.354
306.372
306.389
306.401
306.415
306.429
306.443
306.457
306.469
306.48
306.49
306.498
306.506
306.511
306.516
306.519
306.52
306.519
306.517
306.513
306.507
306.498
306.488
306.475
306.459
306.44
306.418
306.391
306.358
306.322
306.286
306.244
306.196
306.142
306.082
305.981
305.889
305.773
305.622
302.927
303.04
303.129
303.204
303.269
303.325
303.371
303.415
303.457
303.496
303.532
303.569
303.605
303.64
303.675
303.708
303.74
303.771
303.801
303.832
303.862
303.892
303.922
303.952
303.982
304.011
304.039
304.068
304.096
304.124
304.151
304.179
304.205
304.232
304.259
304.285
304.311
304.337
304.362
304.388
304.413
304.438
304.464
304.49
304.517
304.542
304.567
304.592
304.618
304.644
304.668
304.692
304.717
304.742
304.767
304.793
304.819
304.845
304.87
304.894
304.917
304.94
304.964
304.989
305.013
305.038
305.063
305.087
305.112
305.136
305.16
305.184
305.208
305.232
305.255
305.279
305.302
305.326
305.349
305.374
305.4
305.425
305.449
305.472
305.494
305.515
305.539
305.564
305.588
305.611
305.632
305.655
305.68
305.703
305.727
305.752
305.776
305.798
305.822
305.845
305.866
305.888
305.909
305.932
305.956
305.98
306.003
306.022
306.043
306.063
306.084
306.106
306.129
306.152
306.173
306.191
306.21
306.231
306.252
306.271
306.286
306.303
306.321
306.339
306.356
306.369
306.383
306.398
306.412
306.425
306.438
306.449
306.459
306.467
306.475
306.481
306.485
306.488
306.49
306.489
306.487
306.483
306.477
306.469
306.458
306.445
306.429
306.41
306.388
306.361
306.327
306.292
306.254
306.212
306.163
306.107
306.042
305.945
305.847
305.725
305.56
302.844
302.944
303.03
303.105
303.172
303.23
303.282
303.329
303.374
303.416
303.455
303.493
303.531
303.567
303.603
303.637
303.671
303.703
303.735
303.766
303.797
303.828
303.859
303.889
303.919
303.949
303.978
304.007
304.035
304.064
304.092
304.119
304.147
304.174
304.201
304.227
304.254
304.28
304.306
304.332
304.358
304.383
304.41
304.436
304.462
304.488
304.513
304.539
304.565
304.591
304.616
304.64
304.665
304.691