/*--------------------------------*- C++ -*----------------------------------*\
| =========                 |                                                 |
| \\      /  F ield         | OpenFOAM: The Open Source CFD Toolbox           |
|  \\    /   O peration     | Version:  2106                                  |
|   \\  /    A nd           | Website:  www.openfoam.com                      |
|    \\/     M anipulation  |                                                 |
\*---------------------------------------------------------------------------*/
FoamFile
{
    version     2.0;
    format      ascii;
    arch        "LSB;label=32;scalar=64";
    class       volVectorField;
    location    "6.8";
    object      U;
}
// * * * * * * * * * * * * * * * * * * * * * * * * * * * * * * * * * * * * * //

dimensions      [0 1 -1 0 0 0 0];

internalField   nonuniform List<vector> 
12013
(
(0.100037 -1.0355e-05 0)
(0.100189 -1.91477e-05 0)
(0.100435 -2.73104e-05 0)
(0.100754 -3.48473e-05 0)
(0.101138 -4.19381e-05 0)
(0.101582 -4.86838e-05 0)
(0.10208 -5.51495e-05 0)
(0.102628 -6.13863e-05 0)
(0.103221 -6.74341e-05 0)
(0.103856 -7.33227e-05 0)
(0.104529 -7.90765e-05 0)
(0.105239 -8.47157e-05 0)
(0.105982 -9.02554e-05 0)
(0.106755 -9.57089e-05 0)
(0.107557 -0.000101086 0)
(0.108387 -0.000106396 0)
(0.10924 -0.000111644 0)
(0.110118 -0.000116837 0)
(0.111016 -0.000121976 0)
(0.111934 -0.000127066 0)
(0.112871 -0.000132106 0)
(0.113825 -0.000137099 0)
(0.114795 -0.000142042 0)
(0.115778 -0.000146936 0)
(0.116775 -0.000151778 0)
(0.117784 -0.000156566 0)
(0.118803 -0.000161295 0)
(0.119831 -0.000165963 0)
(0.120868 -0.000170565 0)
(0.121912 -0.000175095 0)
(0.122963 -0.000179547 0)
(0.124018 -0.000183915 0)
(0.125076 -0.000188191 0)
(0.126138 -0.000192366 0)
(0.127201 -0.000196433 0)
(0.128265 -0.00020038 0)
(0.129329 -0.000204197 0)
(0.130391 -0.000207871 0)
(0.131451 -0.00021139 0)
(0.132506 -0.000214738 0)
(0.133558 -0.000217899 0)
(0.134603 -0.000220855 0)
(0.135641 -0.000223587 0)
(0.136671 -0.00022607 0)
(0.137692 -0.000228281 0)
(0.138702 -0.000230191 0)
(0.1397 -0.000231769 0)
(0.140685 -0.000232978 0)
(0.141655 -0.000233778 0)
(0.142609 -0.000234123 0)
(0.143545 -0.000233959 0)
(0.144462 -0.000233225 0)
(0.145358 -0.00023185 0)
(0.14623 -0.000229752 0)
(0.147077 -0.000226835 0)
(0.147896 -0.000222985 0)
(0.148685 -0.000218068 0)
(0.149441 -0.000211923 0)
(0.15016 -0.000204357 0)
(0.150838 -0.000195137 0)
(0.151472 -0.000183977 0)
(0.152056 -0.000170522 0)
(0.152585 -0.000154335 0)
(0.153051 -0.000134858 0)
(0.153447 -0.000111384 0)
(0.153762 -8.29934e-05 0)
(0.153984 -4.84832e-05 0)
(0.154097 -6.24348e-06 0)
(0.154084 4.59278e-05 0)
(0.153919 0.000111164 0)
(0.153571 0.000193935 0)
(0.152995 0.000300817 0)
(0.152132 0.000441788 0)
(0.150899 0.000632488 0)
(0.149173 0.000898284 0)
(0.146771 0.00128177 0)
(0.143409 0.00185713 0)
(0.138616 0.00276152 0)
(0.131602 0.00429109 0)
(0.121281 0.00731659 0)
(0.109431 0.0159321 0)
(0.100034 -3.16157e-05 0)
(0.100186 -5.87054e-05 0)
(0.100431 -8.37745e-05 0)
(0.100748 -0.000106905 0)
(0.101132 -0.000128668 0)
(0.101575 -0.000149369 0)
(0.102072 -0.000169208 0)
(0.102619 -0.000188345 0)
(0.103211 -0.000206899 0)
(0.103845 -0.000224964 0)
(0.104517 -0.000242615 0)
(0.105226 -0.000259912 0)
(0.105967 -0.000276903 0)
(0.10674 -0.000293629 0)
(0.107541 -0.000310121 0)
(0.108369 -0.000326404 0)
(0.109221 -0.000342498 0)
(0.110097 -0.000358419 0)
(0.110994 -0.000374178 0)
(0.111911 -0.000389781 0)
(0.112847 -0.000405234 0)
(0.113799 -0.000420538 0)
(0.114767 -0.000435692 0)
(0.115749 -0.000450692 0)
(0.116744 -0.000465533 0)
(0.117751 -0.000480205 0)
(0.118769 -0.000494699 0)
(0.119796 -0.000509003 0)
(0.120831 -0.000523103 0)
(0.121873 -0.000536981 0)
(0.122921 -0.00055062 0)
(0.123974 -0.000564 0)
(0.125031 -0.000577097 0)
(0.12609 -0.000589886 0)
(0.127152 -0.000602339 0)
(0.128214 -0.000614426 0)
(0.129275 -0.000626113 0)
(0.130335 -0.000637362 0)
(0.131392 -0.000648133 0)
(0.132445 -0.00065838 0)
(0.133494 -0.000668054 0)
(0.134537 -0.000677099 0)
(0.135572 -0.000685454 0)
(0.1366 -0.000693049 0)
(0.137618 -0.000699809 0)
(0.138625 -0.000705647 0)
(0.13962 -0.000710465 0)
(0.140602 -0.000714156 0)
(0.14157 -0.000716594 0)
(0.142521 -0.000717637 0)
(0.143455 -0.000717124 0)
(0.144369 -0.000714867 0)
(0.145262 -0.000710651 0)
(0.146132 -0.000704225 0)
(0.146976 -0.000695294 0)
(0.147793 -0.000683515 0)
(0.14858 -0.000668478 0)
(0.149333 -0.000649695 0)
(0.150051 -0.000626581 0)
(0.150728 -0.000598427 0)
(0.151361 -0.000564368 0)
(0.151945 -0.000523336 0)
(0.152475 -0.000474003 0)
(0.152943 -0.000414698 0)
(0.153342 -0.000343291 0)
(0.153663 -0.000257035 0)
(0.153894 -0.000152336 0)
(0.154021 -2.44217e-05 0)
(0.154026 0.00013318 0)
(0.153889 0.000329521 0)
(0.153579 0.000577425 0)
(0.153062 0.000895489 0)
(0.152288 0.0013114 0)
(0.151193 0.00186749 0)
(0.149687 0.00263022 0)
(0.147652 0.00370639 0)
(0.144927 0.00527034 0)
(0.141287 0.00760906 0)
(0.136463 0.0111986 0)
(0.130469 0.0167396 0)
(0.125581 0.0246016 0)
(0.100031 -5.37341e-05 0)
(0.100181 -0.000100693 0)
(0.100424 -0.00014387 0)
(0.100739 -0.000183696 0)
(0.101121 -0.000221158 0)
(0.101562 -0.000256786 0)
(0.102057 -0.000290926 0)
(0.102602 -0.000323853 0)
(0.103192 -0.000355773 0)
(0.103823 -0.000386851 0)
(0.104494 -0.000417214 0)
(0.1052 -0.000446966 0)
(0.105939 -0.00047619 0)
(0.106709 -0.000504956 0)
(0.107508 -0.000533316 0)
(0.108333 -0.000561316 0)
(0.109184 -0.000588989 0)
(0.110057 -0.000616362 0)
(0.110951 -0.000643454 0)
(0.111865 -0.000670277 0)
(0.112798 -0.000696839 0)
(0.113747 -0.000723144 0)
(0.114712 -0.000749187 0)
(0.115691 -0.000774964 0)
(0.116683 -0.000800464 0)
(0.117686 -0.000825674 0)
(0.1187 -0.000850574 0)
(0.119723 -0.000875145 0)
(0.120755 -0.000899362 0)
(0.121793 -0.000923197 0)
(0.122837 -0.000946618 0)
(0.123886 -0.000969589 0)
(0.124939 -0.000992072 0)
(0.125994 -0.00101402 0)
(0.127051 -0.00103539 0)
(0.128109 -0.00105613 0)
(0.129165 -0.00107618 0)
(0.130221 -0.00109547 0)
(0.131273 -0.00111394 0)
(0.132321 -0.0011315 0)
(0.133365 -0.00114808 0)
(0.134403 -0.00116357 0)
(0.135433 -0.00117787 0)
(0.136455 -0.00119087 0)
(0.137468 -0.00120243 0)
(0.13847 -0.0012124 0)
(0.13946 -0.00122063 0)
(0.140436 -0.00122691 0)
(0.141398 -0.00123105 0)
(0.142344 -0.00123279 0)
(0.143272 -0.00123186 0)
(0.14418 -0.00122795 0)
(0.145068 -0.00122068 0)
(0.145932 -0.00120964 0)
(0.146771 -0.00119432 0)
(0.147583 -0.00117413 0)
(0.148365 -0.0011484 0)
(0.149115 -0.0011163 0)
(0.149828 -0.00107684 0)
(0.150502 -0.00102884 0)
(0.151134 -0.000970854 0)
(0.151717 -0.000901106 0)
(0.152247 -0.0008174 0)
(0.152719 -0.000716981 0)
(0.153124 -0.000596367 0)
(0.153454 -0.000451097 0)
(0.1537 -0.000275383 0)
(0.153849 -6.16268e-05 0)
(0.153887 0.000200305 0)
(0.153796 0.000524275 0)
(0.153554 0.000929526 0)
(0.153134 0.00144317 0)
(0.152506 0.00210414 0)
(0.151629 0.00296919 0)
(0.150461 0.0041223 0)
(0.148956 0.00568829 0)
(0.147083 0.00785093 0)
(0.144845 0.0108712 0)
(0.142354 0.0150898 0)
(0.140035 0.0207995 0)
(0.139144 0.0274724 0)
(0.100028 -7.65179e-05 0)
(0.100175 -0.000144991 0)
(0.100415 -0.000207525 0)
(0.100727 -0.000265239 0)
(0.101105 -0.000319502 0)
(0.101543 -0.000371092 0)
(0.102036 -0.000420517 0)
(0.102577 -0.000468178 0)
(0.103164 -0.000514376 0)
(0.103792 -0.000559348 0)
(0.104459 -0.00060328 0)
(0.105162 -0.000646322 0)
(0.105898 -0.000688598 0)
(0.106664 -0.000730204 0)
(0.107459 -0.000771221 0)
(0.108281 -0.000811711 0)
(0.109127 -0.000851725 0)
(0.109996 -0.0008913 0)
(0.110886 -0.000930464 0)
(0.111796 -0.000969236 0)
(0.112724 -0.00100763 0)
(0.113668 -0.00104564 0)
(0.114628 -0.00108327 0)
(0.115602 -0.00112051 0)
(0.116589 -0.00115734 0)
(0.117587 -0.00119375 0)
(0.118596 -0.00122971 0)
(0.119614 -0.00126519 0)
(0.120639 -0.00130014 0)
(0.121672 -0.00133454 0)
(0.12271 -0.00136834 0)
(0.123753 -0.00140148 0)
(0.124799 -0.00143391 0)
(0.125848 -0.00146556 0)
(0.126899 -0.00149637 0)
(0.127949 -0.00152626 0)
(0.128999 -0.00155514 0)
(0.130047 -0.00158293 0)
(0.131092 -0.00160951 0)
(0.132133 -0.00163479 0)
(0.133169 -0.00165863 0)
(0.134199 -0.0016809 0)
(0.135222 -0.00170145 0)
(0.136236 -0.0017201 0)
(0.137241 -0.00173668 0)
(0.138235 -0.00175096 0)
(0.139216 -0.00176271 0)
(0.140184 -0.00177166 0)
(0.141138 -0.00177752 0)
(0.142075 -0.00177992 0)
(0.142995 -0.00177849 0)
(0.143895 -0.00177276 0)
(0.144775 -0.00176223 0)
(0.145631 -0.00174627 0)
(0.146463 -0.0017242 0)
(0.147267 -0.00169518 0)
(0.148042 -0.00165825 0)
(0.148786 -0.00161226 0)
(0.149494 -0.00155584 0)
(0.150164 -0.00148733 0)
(0.150793 -0.00140475 0)
(0.151376 -0.00130565 0)
(0.151908 -0.00118704 0)
(0.152384 -0.00104519 0)
(0.152799 -0.000875425 0)
(0.153145 -0.00067184 0)
(0.153413 -0.000426858 0)
(0.153596 -0.000130692 0)
(0.153681 0.000229395 0)
(0.153656 0.000670333 0)
(0.153508 0.00121493 0)
(0.153223 0.0018941 0)
(0.152785 0.00275007 0)
(0.152183 0.00384079 0)
(0.151411 0.00524547 0)
(0.150485 0.00707069 0)
(0.14945 0.00945353 0)
(0.148419 0.0125524 0)
(0.147612 0.0165022 0)
(0.147412 0.0212617 0)
(0.148367 0.0261789 0)
(0.100026 -9.9972e-05 0)
(0.10017 -0.000191513 0)
(0.100405 -0.000274696 0)
(0.100713 -0.00035155 0)
(0.101087 -0.000423783 0)
(0.10152 -0.000492432 0)
(0.102008 -0.000558184 0)
(0.102545 -0.000621574 0)
(0.103128 -0.000683008 0)
(0.103752 -0.000742799 0)
(0.104414 -0.000801198 0)
(0.105112 -0.000858406 0)
(0.105843 -0.000914585 0)
(0.106604 -0.000969867 0)
(0.107394 -0.00102436 0)
(0.10821 -0.00107814 0)
(0.109051 -0.00113128 0)
(0.109914 -0.00118383 0)
(0.110798 -0.00123583 0)
(0.111702 -0.0012873 0)
(0.112624 -0.00133825 0)
(0.113562 -0.00138869 0)
(0.114516 -0.00143862 0)
(0.115483 -0.00148802 0)
(0.116463 -0.00153687 0)
(0.117454 -0.00158515 0)
(0.118455 -0.00163282 0)
(0.119465 -0.00167984 0)
(0.120483 -0.00172617 0)
(0.121508 -0.00177174 0)
(0.122538 -0.0018165 0)
(0.123573 -0.00186038 0)
(0.124611 -0.0019033 0)
(0.125651 -0.00194519 0)
(0.126692 -0.00198594 0)
(0.127734 -0.00202545 0)
(0.128774 -0.00206363 0)
(0.129813 -0.00210033 0)
(0.130848 -0.00213543 0)
(0.131879 -0.00216879 0)
(0.132905 -0.00220023 0)
(0.133925 -0.00222957 0)
(0.134937 -0.00225662 0)
(0.135941 -0.00228116 0)
(0.136935 -0.00230293 0)
(0.137918 -0.00232165 0)
(0.138889 -0.00233702 0)
(0.139846 -0.00234869 0)
(0.140789 -0.00235626 0)
(0.141715 -0.00235927 0)
(0.142624 -0.00235722 0)
(0.143514 -0.00234952 0)
(0.144383 -0.0023355 0)
(0.145229 -0.00231437 0)
(0.146051 -0.00228524 0)
(0.146846 -0.00224705 0)
(0.147613 -0.00219856 0)
(0.148349 -0.00213832 0)
(0.149051 -0.00206459 0)
(0.149717 -0.00197531 0)
(0.150343 -0.00186798 0)
(0.150926 -0.00173961 0)
(0.151462 -0.00158652 0)
(0.151947 -0.0014042 0)
(0.152376 -0.00118708 0)
(0.152743 -0.000928197 0)
(0.153043 -0.000618797 0)
(0.153269 -0.00024782 0)
(0.153416 0.000198744 0)
(0.153476 0.000738784 0)
(0.153445 0.0013955 0)
(0.153318 0.00219888 0)
(0.153096 0.00318751 0)
(0.152788 0.00441054 0)
(0.152415 0.00592919 0)
(0.152022 0.00781627 0)
(0.151685 0.0101504 0)
(0.151534 0.0129971 0)
(0.15176 0.0163635 0)
(0.15261 0.020101 0)
(0.154304 0.0237358 0)
(0.100023 -0.000124104 0)
(0.100163 -0.000240178 0)
(0.100393 -0.000345329 0)
(0.100696 -0.000442617 0)
(0.101065 -0.000534043 0)
(0.101493 -0.000620905 0)
(0.101976 -0.00070408 0)
(0.102507 -0.000784246 0)
(0.103084 -0.000861919 0)
(0.103702 -0.0009375 0)
(0.104359 -0.0010113 0)
(0.10505 -0.00108359 0)
(0.105775 -0.00115456 0)
(0.10653 -0.00122439 0)
(0.107313 -0.0012932 0)
(0.108122 -0.0013611 0)
(0.108956 -0.00142818 0)
(0.109812 -0.00149451 0)
(0.110689 -0.00156012 0)
(0.111585 -0.00162505 0)
(0.112499 -0.00168932 0)
(0.113429 -0.00175292 0)
(0.114374 -0.00181587 0)
(0.115332 -0.00187814 0)
(0.116303 -0.0019397 0)
(0.117286 -0.00200052 0)
(0.118277 -0.00206056 0)
(0.119278 -0.00211976 0)
(0.120286 -0.00217807 0)
(0.121301 -0.00223542 0)
(0.122321 -0.00229172 0)
(0.123345 -0.0023469 0)
(0.124372 -0.00240085 0)
(0.125401 -0.00245348 0)
(0.126431 -0.00250466 0)
(0.127461 -0.00255426 0)
(0.12849 -0.00260215 0)
(0.129517 -0.00264818 0)
(0.13054 -0.00269217 0)
(0.131559 -0.00273394 0)
(0.132572 -0.00277328 0)
(0.133579 -0.00280996 0)
(0.134579 -0.00284375 0)
(0.135569 -0.00287435 0)
(0.13655 -0.00290146 0)
(0.13752 -0.00292474 0)
(0.138477 -0.0029438 0)
(0.139421 -0.0029582 0)
(0.140351 -0.00296746 0)
(0.141264 -0.00297102 0)
(0.14216 -0.00296825 0)
(0.143036 -0.00295845 0)
(0.143893 -0.00294078 0)
(0.144727 -0.0029143 0)
(0.145538 -0.00287792 0)
(0.146323 -0.00283038 0)
(0.14708 -0.0027702 0)
(0.147808 -0.00269565 0)
(0.148504 -0.00260468 0)
(0.149165 -0.00249488 0)
(0.14979 -0.00236338 0)
(0.150375 -0.00220673 0)
(0.150917 -0.00202078 0)
(0.151413 -0.00180051 0)
(0.151861 -0.00153981 0)
(0.152256 -0.0012312 0)
(0.152595 -0.000865484 0)
(0.152875 -0.000431362 0)
(0.153095 8.50941e-05 0)
(0.153253 0.000700599 0)
(0.15335 0.00143606 0)
(0.153392 0.00231697 0)
(0.15339 0.00337385 0)
(0.153364 0.00464229 0)
(0.153349 0.00616172 0)
(0.153395 0.00797191 0)
(0.153579 0.0101049 0)
(0.154007 0.012569 0)
(0.15481 0.0153195 0)
(0.156122 0.0182138 0)
(0.158019 0.0209591 0)
(0.10002 -0.000148924 0)
(0.100157 -0.000290919 0)
(0.100382 -0.000419371 0)
(0.100679 -0.000538404 0)
(0.101041 -0.000650291 0)
(0.101463 -0.000756567 0)
(0.101939 -0.000858309 0)
(0.102464 -0.000956345 0)
(0.103033 -0.00105131 0)
(0.103644 -0.00114369 0)
(0.104293 -0.00123388 0)
(0.104978 -0.00132219 0)
(0.105694 -0.00140887 0)
(0.106441 -0.00149414 0)
(0.107216 -0.00157815 0)
(0.108017 -0.00166103 0)
(0.108842 -0.00174289 0)
(0.109689 -0.0018238 0)
(0.110557 -0.00190382 0)
(0.111443 -0.00198299 0)
(0.112347 -0.00206134 0)
(0.113268 -0.00213886 0)
(0.114202 -0.00221555 0)
(0.115151 -0.00229139 0)
(0.116111 -0.00236635 0)
(0.117082 -0.00244039 0)
(0.118063 -0.00251346 0)
(0.119052 -0.00258548 0)
(0.120048 -0.00265639 0)
(0.12105 -0.0027261 0)
(0.122058 -0.00279451 0)
(0.123069 -0.00286153 0)
(0.124083 -0.00292703 0)
(0.125099 -0.00299089 0)
(0.126116 -0.00305296 0)
(0.127132 -0.00311309 0)
(0.128147 -0.0031711 0)
(0.129159 -0.00322682 0)
(0.130168 -0.00328004 0)
(0.131172 -0.00333053 0)
(0.13217 -0.00337804 0)
(0.133162 -0.0034223 0)
(0.134146 -0.00346302 0)
(0.135121 -0.00349985 0)
(0.136087 -0.00353243 0)
(0.137041 -0.00356035 0)
(0.137983 -0.00358314 0)
(0.138911 -0.00360029 0)
(0.139825 -0.00361123 0)
(0.140723 -0.00361529 0)
(0.141603 -0.00361175 0)
(0.142466 -0.00359976 0)
(0.143308 -0.00357837 0)
(0.144129 -0.00354649 0)
(0.144927 -0.00350286 0)
(0.1457 -0.00344603 0)
(0.146447 -0.00337432 0)
(0.147166 -0.0032858 0)
(0.147856 -0.00317818 0)
(0.148514 -0.0030488 0)
(0.149138 -0.00289453 0)
(0.149727 -0.00271166 0)
(0.150278 -0.0024958 0)
(0.150789 -0.00224174 0)
(0.15126 -0.00194325 0)
(0.151688 -0.00159293 0)
(0.152072 -0.0011819 0)
(0.152413 -0.000699608 0)
(0.152713 -0.000133548 0)
(0.152974 0.000530708 0)
(0.153202 0.00130969 0)
(0.153409 0.00222247 0)
(0.153612 0.00328999 0)
(0.153834 0.00453396 0)
(0.15411 0.00597469 0)
(0.154489 0.00762711 0)
(0.15503 0.00949431 0)
(0.155806 0.0115574 0)
(0.156896 0.0137614 0)
(0.158364 0.0159985 0)
(0.160226 0.0180988 0)
(0.100017 -0.000174456 0)
(0.100151 -0.000343691 0)
(0.10037 -0.000496776 0)
(0.10066 -0.000638872 0)
(0.101015 -0.000772511 0)
(0.10143 -0.000899439 0)
(0.101898 -0.00102093 0)
(0.102415 -0.00113797 0)
(0.102976 -0.00125132 0)
(0.103578 -0.00136155 0)
(0.104219 -0.00146914 0)
(0.104894 -0.00157445 0)
(0.105602 -0.0016778 0)
(0.106339 -0.00177943 0)
(0.107104 -0.00187953 0)
(0.107895 -0.00197827 0)
(0.108709 -0.00207575 0)
(0.109546 -0.00217209 0)
(0.110403 -0.00226734 0)
(0.111278 -0.00236154 0)
(0.112171 -0.00245474 0)
(0.113079 -0.00254692 0)
(0.114002 -0.00263809 0)
(0.114938 -0.00272822 0)
(0.115885 -0.00281728 0)
(0.116843 -0.0029052 0)
(0.11781 -0.00299193 0)
(0.118786 -0.0030774 0)
(0.119768 -0.0031615 0)
(0.120756 -0.00324415 0)
(0.121749 -0.00332523 0)
(0.122745 -0.00340461 0)
(0.123744 -0.00348216 0)
(0.124745 -0.00355771 0)
(0.125745 -0.00363111 0)
(0.126746 -0.00370217 0)
(0.127744 -0.00377069 0)
(0.12874 -0.00383645 0)
(0.129731 -0.0038992 0)
(0.130719 -0.00395868 0)
(0.1317 -0.0040146 0)
(0.132674 -0.00406665 0)
(0.133641 -0.00411447 0)
(0.134598 -0.00415767 0)
(0.135546 -0.00419582 0)
(0.136482 -0.00422845 0)
(0.137406 -0.00425502 0)
(0.138317 -0.00427495 0)
(0.139213 -0.00428758 0)
(0.140094 -0.00429215 0)
(0.140958 -0.00428784 0)
(0.141803 -0.00427369 0)
(0.14263 -0.00424865 0)
(0.143436 -0.00421148 0)
(0.14422 -0.00416082 0)
(0.144981 -0.00409506 0)
(0.145718 -0.0040124 0)
(0.146429 -0.00391074 0)
(0.147112 -0.00378766 0)
(0.147767 -0.00364038 0)
(0.148393 -0.00346566 0)
(0.148987 -0.00325974 0)
(0.149549 -0.00301826 0)
(0.150079 -0.00273614 0)
(0.150576 -0.00240749 0)
(0.151041 -0.00202547 0)
(0.151474 -0.00158221 0)
(0.151879 -0.00106869 0)
(0.152259 -0.000474688 0)
(0.152621 0.000211268 0)
(0.152974 0.00100048 0)
(0.15333 0.00190535 0)
(0.153708 0.0029379 0)
(0.154132 0.00410842 0)
(0.154631 0.00542336 0)
(0.155241 0.00688236 0)
(0.156006 0.00847418 0)
(0.156971 0.0101717 0)
(0.158176 0.0119263 0)
(0.15965 0.0136645 0)
(0.161387 0.01529 0)
(0.100014 -0.000200735 0)
(0.100145 -0.000398464 0)
(0.100358 -0.000577506 0)
(0.100641 -0.000743975 0)
(0.100988 -0.000900669 0)
(0.101394 -0.00104951 0)
(0.101853 -0.00119197 0)
(0.102361 -0.00132918 0)
(0.102913 -0.00146203 0)
(0.103506 -0.00159119 0)
(0.104136 -0.00171722 0)
(0.104801 -0.00184055 0)
(0.105498 -0.00196154 0)
(0.106224 -0.00208048 0)
(0.106978 -0.0021976 0)
(0.107757 -0.00231308 0)
(0.108559 -0.00242707 0)
(0.109384 -0.00253967 0)
(0.110228 -0.00265096 0)
(0.11109 -0.00276101 0)
(0.111969 -0.00286982 0)
(0.112864 -0.00297743 0)
(0.113773 -0.00308381 0)
(0.114694 -0.00318893 0)
(0.115627 -0.00329276 0)
(0.11657 -0.00339523 0)
(0.117522 -0.00349627 0)
(0.118481 -0.00359578 0)
(0.119448 -0.00369367 0)
(0.120419 -0.00378982 0)
(0.121395 -0.00388408 0)
(0.122375 -0.00397633 0)
(0.123356 -0.00406639 0)
(0.124339 -0.00415408 0)
(0.125321 -0.00423922 0)
(0.126303 -0.00432158 0)
(0.127283 -0.00440094 0)
(0.12826 -0.00447705 0)
(0.129232 -0.00454961 0)
(0.1302 -0.00461833 0)
(0.131162 -0.00468288 0)
(0.132117 -0.00474289 0)
(0.133063 -0.00479796 0)
(0.134001 -0.00484765 0)
(0.134928 -0.00489147 0)
(0.135845 -0.00492889 0)
(0.136749 -0.00495931 0)
(0.137641 -0.00498208 0)
(0.138518 -0.00499645 0)
(0.139379 -0.0050016 0)
(0.140225 -0.00499663 0)
(0.141053 -0.00498049 0)
(0.141863 -0.00495203 0)
(0.142653 -0.00490995 0)
(0.143423 -0.00485277 0)
(0.144172 -0.00477882 0)
(0.144898 -0.00468621 0)
(0.1456 -0.00457279 0)
(0.146278 -0.00443611 0)
(0.146931 -0.0042734 0)
(0.147558 -0.00408148 0)
(0.14816 -0.00385677 0)
(0.148735 -0.00359515 0)
(0.149285 -0.00329202 0)
(0.149811 -0.00294216 0)
(0.150313 -0.00253975 0)
(0.150796 -0.00207835 0)
(0.151263 -0.00155097 0)
(0.151719 -0.000950104 0)
(0.152174 -0.000267921 0)
(0.152636 0.000503363 0)
(0.153119 0.00136934 0)
(0.153638 0.00233508 0)
(0.154213 0.00340287 0)
(0.154868 0.00457077 0)
(0.155628 0.00583077 0)
(0.15652 0.00716681 0)
(0.15757 0.00855282 0)
(0.158796 0.00995153 0)
(0.160207 0.011315 0)
(0.161793 0.0125888 0)
(0.10001 -0.000227798 0)
(0.100139 -0.000455219 0)
(0.100345 -0.000661529 0)
(0.100621 -0.000853669 0)
(0.10096 -0.00103472 0)
(0.101357 -0.00120675 0)
(0.101806 -0.00137141 0)
(0.102303 -0.00152998 0)
(0.102845 -0.00168348 0)
(0.103426 -0.00183267 0)
(0.104045 -0.00197821 0)
(0.104698 -0.00212058 0)
(0.105383 -0.00226022 0)
(0.106097 -0.00239743 0)
(0.106838 -0.0025325 0)
(0.107603 -0.00266563 0)
(0.108392 -0.00279699 0)
(0.109202 -0.00292671 0)
(0.110032 -0.00305488 0)
(0.11088 -0.00318156 0)
(0.111744 -0.00330678 0)
(0.112623 -0.00343055 0)
(0.113516 -0.00355286 0)
(0.114421 -0.00367368 0)
(0.115337 -0.00379295 0)
(0.116263 -0.00391061 0)
(0.117197 -0.00402657 0)
(0.118139 -0.00414073 0)
(0.119087 -0.00425296 0)
(0.12004 -0.00436313 0)
(0.120997 -0.00447109 0)
(0.121957 -0.00457666 0)
(0.122919 -0.00467968 0)
(0.123882 -0.00477992 0)
(0.124844 -0.00487717 0)
(0.125805 -0.00497118 0)
(0.126764 -0.00506169 0)
(0.12772 -0.00514842 0)
(0.128671 -0.00523104 0)
(0.129618 -0.00530922 0)
(0.130558 -0.00538258 0)
(0.131491 -0.00545071 0)
(0.132416 -0.00551317 0)
(0.133331 -0.00556946 0)
(0.134237 -0.00561906 0)
(0.135132 -0.00566137 0)
(0.136015 -0.00569573 0)
(0.136885 -0.00572144 0)
(0.137741 -0.00573769 0)
(0.138583 -0.00574362 0)
(0.139409 -0.00573822 0)
(0.140218 -0.00572043 0)
(0.14101 -0.00568903 0)
(0.141784 -0.00564266 0)
(0.142539 -0.00557982 0)
(0.143275 -0.00549882 0)
(0.14399 -0.00539776 0)
(0.144684 -0.00527453 0)
(0.145357 -0.00512678 0)
(0.146009 -0.00495187 0)
(0.146639 -0.00474685 0)
(0.147249 -0.00450847 0)
(0.147838 -0.00423315 0)
(0.148408 -0.00391693 0)
(0.148962 -0.00355557 0)
(0.149501 -0.00314449 0)
(0.15003 -0.00267892 0)
(0.150554 -0.002154 0)
(0.151078 -0.00156493 0)
(0.151611 -0.000907219 0)
(0.152163 -0.000176823 0)
(0.152744 0.000628851 0)
(0.153369 0.00150873 0)
(0.154051 0.0024604 0)
(0.154806 0.00347783 0)
(0.155652 0.00455041 0)
(0.156603 0.00566231 0)
(0.157674 0.00679209 0)
(0.15887 0.00791297 0)
(0.160193 0.00899438 0)
(0.161631 0.0100053 0)
(0.100007 -0.000255682 0)
(0.100133 -0.000513942 0)
(0.100333 -0.000748812 0)
(0.100601 -0.000967906 0)
(0.10093 -0.0011746 0)
(0.101317 -0.0013711 0)
(0.101756 -0.00155919 0)
(0.102242 -0.00174032 0)
(0.102772 -0.00191562 0)
(0.103341 -0.00208597 0)
(0.103947 -0.00225209 0)
(0.104587 -0.00241456 0)
(0.105258 -0.00257383 0)
(0.105958 -0.0027303 0)
(0.106684 -0.00288426 0)
(0.107435 -0.00303595 0)
(0.108209 -0.00318558 0)
(0.109003 -0.00333326 0)
(0.109816 -0.00347913 0)
(0.110648 -0.00362323 0)
(0.111495 -0.00376562 0)
(0.112356 -0.0039063 0)
(0.113231 -0.00404525 0)
(0.114118 -0.00418245 0)
(0.115015 -0.00431782 0)
(0.115922 -0.00445129 0)
(0.116837 -0.00458277 0)
(0.117759 -0.00471212 0)
(0.118687 -0.00483923 0)
(0.119619 -0.00496393 0)
(0.120555 -0.00508605 0)
(0.121494 -0.0052054 0)
(0.122434 -0.00532176 0)
(0.123374 -0.00543493 0)
(0.124314 -0.00554463 0)
(0.125253 -0.0056506 0)
(0.126189 -0.00575254 0)
(0.127122 -0.00585014 0)
(0.12805 -0.00594304 0)
(0.128972 -0.00603086 0)
(0.129889 -0.0061132 0)
(0.130798 -0.0061896 0)
(0.131699 -0.00625958 0)
(0.132591 -0.00632261 0)
(0.133473 -0.0063781 0)
(0.134345 -0.00642542 0)
(0.135205 -0.00646388 0)
(0.136052 -0.00649272 0)
(0.136886 -0.0065111 0)
(0.137706 -0.0065181 0)
(0.138511 -0.00651271 0)
(0.139301 -0.00649381 0)
(0.140075 -0.00646019 0)
(0.140832 -0.00641049 0)
(0.141572 -0.00634321 0)
(0.142294 -0.00625671 0)
(0.142998 -0.00614919 0)
(0.143684 -0.00601867 0)
(0.144352 -0.00586297 0)
(0.145003 -0.00567972 0)
(0.145637 -0.00546635 0)
(0.146254 -0.0052201 0)
(0.146857 -0.00493803 0)
(0.147447 -0.00461703 0)
(0.148026 -0.0042539 0)
(0.148599 -0.00384542 0)
(0.149169 -0.00338845 0)
(0.14974 -0.00288011 0)
(0.15032 -0.00231795 0)
(0.150915 -0.00170019 0)
(0.151534 -0.00102591 0)
(0.152186 -0.000295168 0)
(0.152882 0.000490368 0)
(0.15363 0.00132409 0)
(0.154442 0.00219848 0)
(0.155328 0.0031032 0)
(0.156294 0.00402491 0)
(0.157347 0.00494731 0)
(0.158489 0.00585187 0)
(0.159716 0.00671922 0)
(0.161019 0.00753137 0)
(0.100003 -0.000284413 0)
(0.100127 -0.000574618 0)
(0.100321 -0.000839313 0)
(0.10058 -0.00108662 0)
(0.1009 -0.00132023 0)
(0.101277 -0.00154245 0)
(0.101704 -0.00175521 0)
(0.102178 -0.0019601 0)
(0.102695 -0.00215836 0)
(0.103251 -0.00235098 0)
(0.103843 -0.00253877 0)
(0.104468 -0.00272237 0)
(0.105124 -0.0029023 0)
(0.105808 -0.00307899 0)
(0.106519 -0.00325279 0)
(0.107253 -0.00342395 0)
(0.108009 -0.00359271 0)
(0.108786 -0.00375921 0)
(0.109582 -0.00392358 0)
(0.110394 -0.0040859 0)
(0.111222 -0.0042462 0)
(0.112065 -0.00440451 0)
(0.11292 -0.0045608 0)
(0.113786 -0.00471502 0)
(0.114663 -0.00486712 0)
(0.115549 -0.00501701 0)
(0.116442 -0.00516456 0)
(0.117342 -0.00530965 0)
(0.118247 -0.00545213 0)
(0.119157 -0.00559182 0)
(0.12007 -0.00572853 0)
(0.120985 -0.00586205 0)
(0.121901 -0.00599215 0)
(0.122818 -0.00611856 0)
(0.123733 -0.00624102 0)
(0.124647 -0.00635922 0)
(0.125558 -0.00647283 0)
(0.126466 -0.00658152 0)
(0.127368 -0.00668488 0)
(0.128266 -0.00678253 0)
(0.129157 -0.006874 0)
(0.13004 -0.00695881 0)
(0.130916 -0.00703645 0)
(0.131782 -0.00710635 0)
(0.132639 -0.0071679 0)
(0.133486 -0.00722043 0)
(0.134321 -0.00726321 0)
(0.135144 -0.00729546 0)
(0.135955 -0.00731633 0)
(0.136752 -0.00732489 0)
(0.137536 -0.00732011 0)
(0.138305 -0.0073009 0)
(0.13906 -0.00726605 0)
(0.139799 -0.00721427 0)
(0.140523 -0.00714414 0)
(0.141232 -0.00705413 0)
(0.141925 -0.00694259 0)
(0.142603 -0.00680774 0)
(0.143266 -0.0066477 0)
(0.143916 -0.00646046 0)
(0.144552 -0.0062439 0)
(0.145176 -0.00599586 0)
(0.14579 -0.00571409 0)
(0.146397 -0.0053964 0)
(0.146999 -0.00504063 0)
(0.147599 -0.00464482 0)
(0.148201 -0.00420727 0)
(0.14881 -0.00372674 0)
(0.149432 -0.00320258 0)
(0.150072 -0.00263491 0)
(0.150736 -0.00202484 0)
(0.151433 -0.00137462 0)
(0.152168 -0.000687592 0)
(0.15295 3.23306e-05 0)
(0.153785 0.00077742 0)
(0.154677 0.00153681 0)
(0.15563 0.00230012 0)
(0.156645 0.00305558 0)
(0.15772 0.00379076 0)
(0.158853 0.00449352 0)
(0.160035 0.00515331 0)
(0.099999 -0.00031401 0)
(0.10012 -0.000637224 0)
(0.100309 -0.000932973 0)
(0.100559 -0.00120973 0)
(0.10087 -0.00147149 0)
(0.101235 -0.00172067 0)
(0.10165 -0.00195932 0)
(0.102111 -0.00218914 0)
(0.102614 -0.00241151 0)
(0.103155 -0.00262753 0)
(0.103732 -0.00283806 0)
(0.104341 -0.00304383 0)
(0.104981 -0.00324541 0)
(0.105648 -0.00344329 0)
(0.106341 -0.00363785 0)
(0.107057 -0.00382938 0)
(0.107795 -0.00401813 0)
(0.108552 -0.00420427 0)
(0.109328 -0.00438795 0)
(0.11012 -0.00456923 0)
(0.110928 -0.00474818 0)
(0.111749 -0.00492481 0)
(0.112582 -0.00509909 0)
(0.113426 -0.00527097 0)
(0.11428 -0.00544039 0)
(0.115143 -0.00560724 0)
(0.116013 -0.0057714 0)
(0.116889 -0.00593272 0)
(0.11777 -0.00609103 0)
(0.118654 -0.00624613 0)
(0.119542 -0.00639783 0)
(0.120432 -0.00654588 0)
(0.121322 -0.00669002 0)
(0.122212 -0.00682998 0)
(0.123102 -0.00696546 0)
(0.123989 -0.00709612 0)
(0.124873 -0.00722162 0)
(0.125753 -0.00734158 0)
(0.126628 -0.00745559 0)
(0.127498 -0.0075632 0)
(0.128362 -0.00766395 0)
(0.129218 -0.00775733 0)
(0.130067 -0.00784279 0)
(0.130906 -0.00791974 0)
(0.131736 -0.00798755 0)
(0.132556 -0.00804554 0)
(0.133366 -0.00809296 0)
(0.134164 -0.00812904 0)
(0.13495 -0.00815291 0)
(0.135724 -0.00816367 0)
(0.136485 -0.00816032 0)
(0.137233 -0.00814182 0)
(0.137968 -0.00810703 0)
(0.138689 -0.00805475 0)
(0.139397 -0.00798369 0)
(0.140091 -0.00789248 0)
(0.140773 -0.00777971 0)
(0.141442 -0.00764387 0)
(0.142099 -0.00748341 0)
(0.142746 -0.00729674 0)
(0.143383 -0.00708227 0)
(0.144012 -0.00683842 0)
(0.144635 -0.00656369 0)
(0.145254 -0.00625671 0)
(0.145872 -0.00591627 0)
(0.146492 -0.00554148 0)
(0.147118 -0.0051318 0)
(0.147753 -0.00468718 0)
(0.148403 -0.0042082 0)
(0.149071 -0.00369616 0)
(0.149762 -0.00315322 0)
(0.150481 -0.00258247 0)
(0.151232 -0.00198802 0)
(0.152021 -0.00137486 0)
(0.152851 -0.000748628 0)
(0.153726 -0.000114883 0)
(0.154645 0.00051785 0)
(0.155609 0.00114013 0)
(0.156615 0.00174252 0)
(0.157658 0.00231743 0)
(0.158733 0.00285869 0)
(0.0999948 -0.000344476 0)
(0.100114 -0.000701722 0)
(0.100297 -0.00102971 0)
(0.100538 -0.00133711 0)
(0.100838 -0.00162823 0)
(0.101192 -0.00190557 0)
(0.101594 -0.00217129 0)
(0.102041 -0.0024272 0)
(0.102529 -0.00267482 0)
(0.103055 -0.0029153 0)
(0.103615 -0.00314963 0)
(0.104207 -0.00337859 0)
(0.104829 -0.00360281 0)
(0.105477 -0.00382282 0)
(0.106151 -0.00403903 0)
(0.106847 -0.0042518 0)
(0.107565 -0.00446137 0)
(0.108301 -0.00466796 0)
(0.109055 -0.00487169 0)
(0.109826 -0.00507268 0)
(0.110611 -0.00527096 0)
(0.111409 -0.00546656 0)
(0.112218 -0.00565945 0)
(0.113038 -0.00584958 0)
(0.113868 -0.00603687 0)
(0.114705 -0.00622121 0)
(0.115549 -0.00640245 0)
(0.116399 -0.00658043 0)
(0.117254 -0.00675498 0)
(0.118112 -0.00692588 0)
(0.118972 -0.0070929 0)
(0.119834 -0.00725578 0)
(0.120697 -0.00741426 0)
(0.121559 -0.00756801 0)
(0.122419 -0.00771673 0)
(0.123278 -0.00786006 0)
(0.124133 -0.00799762 0)
(0.124984 -0.00812902 0)
(0.12583 -0.00825382 0)
(0.126671 -0.00837155 0)
(0.127506 -0.00848174 0)
(0.128333 -0.00858384 0)
(0.129152 -0.00867731 0)
(0.129963 -0.00876154 0)
(0.130765 -0.00883588 0)
(0.131558 -0.00889966 0)
(0.13234 -0.00895216 0)
(0.133112 -0.00899259 0)
(0.133872 -0.00902013 0)
(0.134621 -0.00903392 0)
(0.135359 -0.00903304 0)
(0.136085 -0.0090165 0)
(0.136799 -0.00898329 0)
(0.137502 -0.00893234 0)
(0.138192 -0.00886254 0)
(0.138872 -0.00877273 0)
(0.139541 -0.00866175 0)
(0.1402 -0.00852842 0)
(0.14085 -0.00837155 0)
(0.141492 -0.00819 0)
(0.142127 -0.00798269 0)
(0.142758 -0.00774861 0)
(0.143385 -0.00748693 0)
(0.144011 -0.00719697 0)
(0.144639 -0.00687834 0)
(0.145272 -0.00653095 0)
(0.145911 -0.00615508 0)
(0.146561 -0.0057515 0)
(0.147225 -0.00532151 0)
(0.147905 -0.00486698 0)
(0.148606 -0.00439047 0)
(0.14933 -0.00389519 0)
(0.15008 -0.00338503 0)
(0.150859 -0.0028645 0)
(0.151667 -0.0023387 0)
(0.152507 -0.00181305 0)
(0.153379 -0.001293 0)
(0.154282 -0.000783495 0)
(0.155214 -0.000289372 0)
(0.156171 0.000183943 0)
(0.157149 0.00063243 0)
(0.0999902 -0.000375796 0)
(0.100107 -0.00076805 0)
(0.100284 -0.00112939 0)
(0.100517 -0.00146859 0)
(0.100806 -0.00179022 0)
(0.101147 -0.00209688 0)
(0.101536 -0.00239081 0)
(0.101968 -0.00267394 0)
(0.10244 -0.00294787 0)
(0.102949 -0.00321389 0)
(0.103492 -0.00347303 0)
(0.104065 -0.00372615 0)
(0.104668 -0.00397395 0)
(0.105296 -0.00421699 0)
(0.105949 -0.00445574 0)
(0.106624 -0.00469057 0)
(0.107319 -0.00492176 0)
(0.108033 -0.00514953 0)
(0.108764 -0.00537405 0)
(0.109511 -0.00559541 0)
(0.110271 -0.00581367 0)
(0.111044 -0.00602885 0)
(0.111828 -0.00624093 0)
(0.112622 -0.00644984 0)
(0.113425 -0.00665549 0)
(0.114235 -0.00685776 0)
(0.115052 -0.00705651 0)
(0.115873 -0.00725155 0)
(0.116699 -0.0074427 0)
(0.117528 -0.00762971 0)
(0.11836 -0.00781234 0)
(0.119192 -0.00799031 0)
(0.120024 -0.00816334 0)
(0.120856 -0.0083311 0)