/*--------------------------------*- C++ -*----------------------------------*\
| =========                 |                                                 |
| \\      /  F ield         | OpenFOAM: The Open Source CFD Toolbox           |
|  \\    /   O peration     | Version:  2106                                  |
|   \\  /    A nd           | Website:  www.openfoam.com                      |
|    \\/     M anipulation  |                                                 |
\*---------------------------------------------------------------------------*/
FoamFile
{
    version     2.0;
    format      ascii;
    arch        "LSB;label=32;scalar=64";
    class       surfaceScalarField;
    location    "7.8";
    object      phi;
}
// * * * * * * * * * * * * * * * * * * * * * * * * * * * * * * * * * * * * * //

dimensions      [1 0 -1 0 0 0 0];

oriented        oriented;

internalField   nonuniform List<scalar> 
23692
(
9.31856e-05
-1.06204e-07
9.33779e-05
-1.92258e-07
9.36469e-05
-2.68939e-07
9.39834e-05
-3.36487e-07
9.43804e-05
-3.9701e-07
9.48322e-05
-4.51781e-07
9.53339e-05
-5.0165e-07
9.58813e-05
-5.47295e-07
9.64706e-05
-5.89237e-07
9.70985e-05
-6.27899e-07
9.77622e-05
-6.63621e-07
9.8459e-05
-6.96687e-07
9.91864e-05
-7.27332e-07
9.99422e-05
-7.55758e-07
0.000100724
-7.82131e-07
0.000101531
-8.066e-07
0.00010236
-8.29285e-07
0.000103211
-8.50296e-07
0.000104081
-8.69724e-07
0.000104968
-8.87651e-07
0.000105873
-9.04148e-07
0.000106792
-9.19274e-07
0.000107725
-9.33086e-07
0.000108671
-9.45626e-07
0.000109628
-9.56942e-07
0.000110595
-9.67065e-07
0.000111571
-9.7603e-07
0.000112555
-9.83862e-07
0.000113546
-9.90587e-07
0.000114542
-9.96226e-07
0.000115543
-1.0008e-06
0.000116548
-1.00431e-06
0.000117555
-1.00679e-06
0.000118563
-1.00823e-06
0.000119572
-1.00864e-06
0.00012058
-1.00803e-06
0.000121586
-1.00641e-06
0.00012259
-1.00375e-06
0.00012359
-1.00007e-06
0.000124586
-9.95352e-07
0.000125575
-9.89582e-07
0.000126558
-9.82745e-07
0.000127533
-9.74817e-07
0.000128499
-9.65774e-07
0.000129454
-9.55582e-07
0.000130399
-9.44201e-07
0.00013133
-9.31584e-07
0.000132248
-9.17673e-07
0.000133151
-9.02404e-07
0.000134036
-8.85694e-07
0.000134904
-8.67452e-07
0.000135751
-8.47566e-07
0.000136577
-8.25904e-07
0.00013738
-8.02312e-07
0.000138156
-7.76606e-07
0.000138905
-7.48564e-07
0.000139623
-7.17923e-07
0.000140307
-6.84367e-07
0.000140955
-6.47511e-07
0.000141562
-6.06888e-07
0.000142124
-5.61924e-07
0.000142636
-5.11909e-07
0.000143092
-4.55958e-07
0.000143485
-3.92954e-07
0.000143806
-3.21471e-07
0.000144046
-2.39669e-07
0.000144191
-1.4514e-07
0.000144226
-3.46934e-08
0.000144129
9.6036e-08
0.000143876
2.53138e-07
0.000143431
4.45281e-07
0.000142746
6.85072e-07
0.000141755
9.91377e-07
0.000140361
1.39326e-06
0.000138424
1.93686e-06
0.000135727
2.69755e-06
0.000131925
3.80153e-06
0.000126459
5.46633e-06
0.000118364
8.09501e-06
0.000105844
1.25201e-05
2.1149e-05
8.46948e-05
9.97098e-05
-2.17023e-07
9.99144e-05
-3.9682e-07
0.000100201
-5.55788e-07
0.00010056
-6.95583e-07
0.000100984
-8.2088e-07
0.000101467
-9.34259e-07
0.000102003
-1.03748e-06
0.000102587
-1.13194e-06
0.000103217
-1.21874e-06
0.000103888
-1.29875e-06
0.000104597
-1.37266e-06
0.000105341
-1.44108e-06
0.000106119
-1.50448e-06
0.000106926
-1.56329e-06
0.000107762
-1.61785e-06
0.000108624
-1.66846e-06
0.00010951
-1.71538e-06
0.000110419
-1.75883e-06
0.000111348
-1.79901e-06
0.000112297
-1.83608e-06
0.000113263
-1.87018e-06
0.000114245
-1.90145e-06
0.000115242
-1.92999e-06
0.000116253
-1.95591e-06
0.000117275
-1.97928e-06
0.000118308
-2.00019e-06
0.000119351
-2.0187e-06
0.000120402
-2.03486e-06
0.00012146
-2.04874e-06
0.000122525
-2.06036e-06
0.000123594
-2.06977e-06
0.000124667
-2.077e-06
0.000125742
-2.08207e-06
0.000126819
-2.085e-06
0.000127896
-2.08581e-06
0.000128973
-2.0845e-06
0.000130047
-2.08108e-06
0.000131119
-2.07554e-06
0.000132187
-2.06787e-06
0.00013325
-2.05805e-06
0.000134306
-2.04606e-06
0.000135356
-2.03186e-06
0.000136396
-2.0154e-06
0.000137427
-1.99664e-06
0.000138447
-1.97551e-06
0.000139455
-1.95192e-06
0.000140449
-1.92578e-06
0.000141429
-1.89696e-06
0.000142392
-1.86535e-06
0.000143337
-1.83076e-06
0.000144262
-1.79301e-06
0.000145167
-1.75188e-06
0.000146048
-1.7071e-06
0.000146904
-1.65834e-06
0.000147733
-1.60524e-06
0.000148532
-1.54735e-06
0.000149298
-1.48413e-06
0.000150028
-1.41494e-06
0.00015072
-1.33901e-06
0.000151368
-1.25539e-06
0.000151969
-1.16293e-06
0.000152518
-1.06021e-06
0.000153007
-9.45453e-07
0.000153431
-8.16448e-07
0.00015378
-6.70374e-07
0.000154044
-5.0361e-07
0.00015421
-3.11456e-07
0.000154263
-8.77208e-08
0.000154183
1.75891e-07
0.000153945
4.90804e-07
0.000153518
8.7299e-07
0.000152858
1.34515e-06
0.000151909
1.94025e-06
0.000150595
2.70716e-06
0.000148812
3.7197e-06
0.000146419
5.0909e-06
0.000143226
6.99387e-06
0.000139003
9.68997e-06
0.00013353
1.35673e-05
0.000126941
1.9109e-05
2.61603e-05
0.00012193
0.00010669
-3.31791e-07
0.000106906
-6.13414e-07
0.000107211
-8.60335e-07
0.000107593
-1.07761e-06
0.000108044
-1.27227e-06
0.000108559
-1.44836e-06
0.00010913
-1.60865e-06
0.000109753
-1.75532e-06
0.000110425
-1.89007e-06
0.00011114
-2.01426e-06
0.000111897
-2.12899e-06
0.000112691
-2.23516e-06
0.00011352
-2.33355e-06
0.000114382
-2.42479e-06
0.000115273
-2.50943e-06
0.000116193
-2.58794e-06
0.000117138
-2.66071e-06
0.000118108
-2.72809e-06
0.000119099
-2.79038e-06
0.000120111
-2.84784e-06
0.000121142
-2.9007e-06
0.000122189
-2.94914e-06
0.000123253
-2.99336e-06
0.000124331
-3.03348e-06
0.000125421
-3.06966e-06
0.000126523
-3.10201e-06
0.000127635
-3.13063e-06
0.000128756
-3.15561e-06
0.000129884
-3.17702e-06
0.000131019
-3.19494e-06
0.000132159
-3.20942e-06
0.000133302
-3.22051e-06
0.000134449
-3.22825e-06
0.000135597
-3.23266e-06
0.000136745
-3.23378e-06
0.000137892
-3.23162e-06
0.000139037
-3.22616e-06
0.000140179
-3.21742e-06
0.000141317
-3.20538e-06
0.000142449
-3.19e-06
0.000143574
-3.17125e-06
0.000144691
-3.14907e-06
0.000145799
-3.12341e-06
0.000146897
-3.09416e-06
0.000147983
-3.06124e-06
0.000149055
-3.02452e-06
0.000150114
-2.98384e-06
0.000151156
-2.93904e-06
0.00015218
-2.8899e-06
0.000153186
-2.83618e-06
0.00015417
-2.77759e-06
0.000155132
-2.71378e-06
0.00015607
-2.64435e-06
0.00015698
-2.56882e-06
0.000157862
-2.48662e-06
0.000158711
-2.39709e-06
0.000159527
-2.2994e-06
0.000160304
-2.19262e-06
0.000161041
-2.07556e-06
0.000161732
-1.94685e-06
0.000162374
-1.80475e-06
0.000162961
-1.64719e-06
0.000163487
-1.47156e-06
0.000163946
-1.27465e-06
0.000164328
-1.05236e-06
0.000164624
-7.9955e-07
0.000164822
-5.09555e-07
0.000164908
-1.73751e-07
0.000164864
2.1917e-07
0.000164671
6.8437e-07
0.000164301
1.24251e-06
0.000163725
1.92195e-06
0.000162903
2.76209e-06
0.000161792
3.81816e-06
0.000160344
5.16784e-06
0.000158515
6.91965e-06
0.000156288
9.22059e-06
0.000153722
1.22556e-05
0.000151074
1.62154e-05
0.000149053
2.11303e-05
2.62754e-05
0.000148938
0.000114158
-4.50209e-07
0.000114386
-8.41475e-07
0.000114708
-1.18238e-06
0.000115113
-1.48269e-06
0.000115593
-1.75163e-06
0.000116139
-1.99484e-06
0.000116747
-2.21616e-06
0.00011741
-2.41864e-06
0.000118125
-2.60464e-06
0.000118887
-2.77602e-06
0.000119692
-2.93432e-06
0.000120538
-3.0808e-06
0.000121421
-3.21651e-06
0.000122339
-3.34234e-06
0.000123288
-3.45904e-06
0.000124268
-3.56727e-06
0.000125275
-3.66757e-06
0.000126307
-3.76042e-06
0.000127363
-3.84623e-06
0.000128441
-3.92537e-06
0.000129538
-3.99813e-06
0.000130654
-4.06481e-06
0.000131787
-4.12564e-06
0.000132934
-4.18082e-06
0.000134095
-4.23055e-06
0.000135268
-4.27497e-06
0.000136452
-4.31424e-06
0.000137645
-4.34849e-06
0.000138846
-4.3778e-06
0.000140053
-4.40229e-06
0.000141266
-4.42202e-06
0.000142483
-4.43708e-06
0.000143702
-4.4475e-06
0.000144923
-4.45334e-06
0.000146144
-4.45462e-06
0.000147364
-4.45136e-06
0.000148581
-4.44357e-06
0.000149795
-4.43124e-06
0.000151004
-4.41435e-06
0.000152207
-4.39287e-06
0.000153403
-4.36673e-06
0.00015459
-4.33588e-06
0.000155767
-4.30022e-06
0.000156932
-4.25963e-06
0.000158085
-4.21398e-06
0.000159224
-4.16311e-06
0.000160347
-4.10681e-06
0.000161452
-4.04485e-06
0.00016254
-3.97695e-06
0.000163606
-3.90278e-06
0.000164651
-3.82195e-06
0.000165671
-3.734e-06
0.000166665
-3.63839e-06
0.000167631
-3.53449e-06
0.000168566
-3.42154e-06
0.000169467
-3.29867e-06
0.000170333
-3.1648e-06
0.000171159
-3.01868e-06
0.000171942
-2.8588e-06
0.000172679
-2.68334e-06
0.000173364
-2.49011e-06
0.000173993
-2.27641e-06
0.000174561
-2.03898e-06
0.00017506
-1.77374e-06
0.000175483
-1.47565e-06
0.000175822
-1.13839e-06
0.000176066
-7.53961e-07
0.000176205
-3.12178e-07
0.000176224
1.9994e-07
0.000176109
7.9916e-07
0.000175844
1.50751e-06
0.000175412
2.35394e-06
0.000174798
3.37644e-06
0.000173991
4.62457e-06
0.000172997
6.16214e-06
0.000171848
8.06837e-06
0.000170634
1.04344e-05
0.000169544
1.33465e-05
0.000168921
1.68377e-05
0.000169289
2.07621e-05
2.45291e-05
0.000171036
0.000122149
-5.72137e-07
0.000122388
-1.08054e-06
0.000122728
-1.52166e-06
0.000123156
-1.91083e-06
0.000123663
-2.25926e-06
0.000124243
-2.57424e-06
0.000124888
-2.86082e-06
0.000125592
-3.12294e-06
0.000126351
-3.36366e-06
0.000127161
-3.58542e-06
0.000128016
-3.79021e-06
0.000128915
-3.97966e-06
0.000129854
-4.15514e-06
0.00013083
-4.31782e-06
0.000131839
-4.46866e-06
0.000132881
-4.6085e-06
0.000133951
-4.73807e-06
0.000135049
-4.85797e-06
0.000136172
-4.96876e-06
0.000137317
-5.07088e-06
0.000138484
-5.16475e-06
0.00013967
-5.25073e-06
0.000140874
-5.32911e-06
0.000142093
-5.40018e-06
0.000143327
-5.46418e-06
0.000144574
-5.5213e-06
0.000145831
-5.57175e-06
0.000147098
-5.61567e-06
0.000148374
-5.65321e-06
0.000149656
-5.68449e-06
0.000150944
-5.70962e-06
0.000152236
-5.72868e-06
0.00015353
-5.74174e-06
0.000154826
-5.74887e-06
0.000156121
-5.75009e-06
0.000157416
-5.74544e-06
0.000158707
-5.73492e-06
0.000159994
-5.71853e-06
0.000161276
-5.69625e-06
0.000162552
-5.66802e-06
0.000163819
-5.63379e-06
0.000165077
-5.59346e-06
0.000166323
-5.54693e-06
0.000167558
-5.49406e-06
0.000168779
-5.43468e-06
0.000169984
-5.36856e-06
0.000171173
-5.29548e-06
0.000172343
-5.21514e-06
0.000173494
-5.12719e-06
0.000174622
-5.03121e-06
0.000175727
-4.92673e-06
0.000176806
-4.81319e-06
0.000177858
-4.68992e-06
0.00017888
-4.55614e-06
0.000179869
-4.41093e-06
0.000180824
-4.25322e-06
0.000181741
-4.08172e-06
0.000182617
-3.89492e-06
0.000183449
-3.69101e-06
0.000184234
-3.46783e-06
0.000184966
-3.22281e-06
0.000185643
-2.95282e-06
0.000186258
-2.65407e-06
0.000186806
-2.32198e-06
0.000187281
-1.95089e-06
0.000187677
-1.53388e-06
0.000187985
-1.06237e-06
0.000188199
-5.25718e-07
0.000188309
8.92109e-08
0.00018831
7.98638e-07
0.000188195
1.62271e-06
0.000187962
2.5867e-06
0.000187617
3.72144e-06
0.000187178
5.06379e-06
0.000186684
6.65602e-06
0.000186209
8.54283e-06
0.00018588
1.07634e-05
0.000185893
1.33335e-05
0.000186521
1.62102e-05
0.000188057
1.92264e-05
2.19974e-05
0.000190588
0.0001307
-6.97579e-07
0.000130949
-1.33024e-06
0.000131306
-1.87792e-06
0.000131757
-2.36191e-06
0.000132293
-2.79529e-06
0.000132905
-3.18696e-06
0.000133588
-3.54324e-06
0.000134334
-3.86903e-06
0.000135139
-4.16814e-06
0.000135997
-4.44363e-06
0.000136905
-4.69797e-06
0.000137858
-4.9332e-06
0.000138854
-5.15103e-06
0.00013989
-5.3529e-06
0.000140961
-5.54003e-06
0.000142066
-5.71346e-06
0.000143202
-5.87409e-06
0.000144367
-6.02269e-06
0.000145559
-6.15993e-06
0.000146774
-6.28638e-06
0.000148012
-6.40255e-06
0.00014927
-6.50889e-06
0.000150547
-6.60579e-06
0.000151841
-6.69357e-06
0.000153149
-6.77254e-06
0.000154471
-6.84296e-06
0.000155805
-6.90506e-06
0.000157148
-6.95905e-06
0.0001585
-7.00509e-06
0.000159859
-7.04335e-06
0.000161224
-7.07394e-06
0.000162592
-7.09699e-06
0.000163963
-7.11258e-06
0.000165335
-7.12078e-06
0.000166707
-7.12165e-06
0.000168077
-7.11522e-06
0.000169443
-7.10151e-06
0.000170805
-7.08051e-06
0.000172162
-7.05219e-06
0.00017351
-7.01651e-06
0.00017485
-6.97338e-06
0.000176179
-6.92272e-06
0.000177497
-6.86438e-06
0.000178801
-6.79821e-06
0.00018009
-6.72399e-06
0.000181363
-6.6415e-06
0.000182618
-6.55043e-06
0.000183854
-6.45044e-06
0.000185068
-6.34113e-06
0.000186259
-6.222e-06
0.000187425
-6.09252e-06
0.000188563
-5.952e-06
0.000189673
-5.79969e-06
0.000190752
-5.63469e-06
0.000191797
-5.45594e-06
0.000192806
-5.26221e-06
0.000193776
-5.05203e-06
0.000194705
-4.82372e-06
0.000195589
-4.57525e-06
0.000196426
-4.30423e-06
0.000197211
-4.00784e-06
0.000197941
-3.68272e-06
0.000198612
-3.32486e-06
0.000199219
-2.92944e-06
0.000199759
-2.49072e-06
0.000200227
-2.00176e-06
0.000200619
-1.45425e-06
0.000200931
-8.38217e-07
0.000201162
-1.41761e-07
0.000201312
6.49043e-07
0.000201384
1.55015e-06
0.000201391
2.58047e-06
0.000201351
3.76105e-06
0.0002013
5.11421e-06
0.000201295
6.66134e-06
0.000201419
8.41884e-06
0.000201792
1.03908e-05
0.000202569
1.25566e-05
0.000203927
1.48516e-05
0.000206012
1.71412e-05
1.91977e-05
0.000208812
0.000139849
-8.2662e-07
0.000140109
-1.59031e-06
0.000140482
-2.25093e-06
0.000140956
-2.83577e-06
0.00014152
-3.35972e-06
0.000142166
-3.83321e-06
0.000142887
-4.26383e-06
0.000143676
-4.65752e-06
0.000144526
-5.01888e-06
0.000145434
-5.35161e-06
0.000146395
-5.6587e-06
0.000147405
-5.94264e-06
0.000148459
-6.20549e-06
0.000149556
-6.449e-06
0.00015069
-6.67466e-06
0.000151861
-6.88371e-06
0.000153064
-7.07726e-06
0.000154298
-7.25623e-06
0.000155559
-7.42143e-06
0.000156847
-7.57357e-06
0.000158158
-7.71326e-06
0.00015949
-7.84104e-06
0.000160842
-7.95738e-06
0.000162211
-8.06268e-06
0.000163596
-8.15731e-06
0.000164995
-8.24159e-06
0.000166406
-8.3158e-06
0.000167827
-8.38019e-06
0.000169257
-8.43496e-06
0.000170694
-8.4803e-06
0.000172137
-8.51638e-06
0.000173583
-8.54333e-06
0.000175032
-8.56127e-06
0.000176481
-8.57027e-06
0.00017793
-8.57042e-06
0.000179377
-8.56175e-06
0.00018082
-8.5443e-06
0.000182258
-8.51805e-06
0.000183689
-8.48298e-06
0.000185111
-8.43905e-06
0.000186524
-8.38616e-06
0.000187926
-8.32421e-06
0.000189315
-8.25306e-06
0.000190689
-8.17251e-06
0.000192047
-8.08234e-06
0.000193388
-7.98228e-06
0.00019471
-7.87199e-06
0.000196011
-7.75111e-06
0.000197289
-7.61915e-06
0.000198542
-7.4756e-06
0.00019977
-7.31983e-06
0.000200969
-7.1511e-06
0.000202138
-6.96858e-06
0.000203275
-6.77126e-06
0.000204377
-6.55801e-06
0.000205442
-6.32748e-06
0.000206468
-6.07813e-06
0.000207453
-5.80813e-06
0.000208393
-5.51538e-06
0.000209286
-5.19739e-06
0.000210129
-4.85129e-06
0.00021092
-4.47369e-06
0.000211656
-4.06063e-06
0.000212334
-3.60751e-06
0.000212952
-3.1089e-06
0.000213509
-2.55853e-06
0.000214004
-1.94908e-06
0.000214438
-1.27215e-06
0.000214814
-5.18201e-07
0.00021514
3.23395e-07
0.000215427
1.26351e-06
0.000215694
2.31362e-06
0.000215969
3.48516e-06
0.000216296
4.78772e-06
0.00021673
6.22681e-06
0.000217349
7.80053e-06
0.000218245
9.49464e-06
0.000219525
1.1276e-05
0.000221292
1.30846e-05
0.000223607
1.48266e-05
1.63738e-05
0.000226431
0.000149638
-9.59433e-07
0.000149908
-1.86058e-06
0.000150298
-2.6405e-06
0.000150795
-3.33223e-06
0.000151387
-3.95248e-06
0.000152067
-4.51304e-06
0.000152826
-5.02283e-06
0.000153658
-5.4888e-06
0.000154555
-5.91642e-06
0.000155514
-6.31004e-06
0.000156528
-6.67323e-06
0.000157595
-7.00892e-06
0.000158709
-7.31957e-06
0.000159867
-7.60726e-06
0.000161067
-7.87374e-06
0.000162304
-8.12052e-06
0.000163575
-8.34888e-06
0.000164879
-8.55993e-06
0.000166213
-8.75464e-06
0.000167573
-8.93384e-06
0.000168958
-9.09827e-06
0.000170366
-9.24855e-06
0.000171794
-9.38525e-06
0.00017324
-9.50886e-06
0.000174703
-9.61981e-06
0.00017618
-9.71848e-06
0.00017767
-9.8052e-06
0.00017917
-9.88026e-06
0.000180679
-9.94393e-06
0.000182195
-9.99643e-06
0.000183717
-1.00379e-05
0.000185242
-1.00686e-05
0.00018677
-1.00887e-05
0.000188298
-1.00981e-05
0.000189825
-1.00971e-05
0.000191349
-1.00857e-05
0.000192869
-1.00638e-05
0.000194382
-1.00316e-05
0.000195888
-9.98903e-06
0.000197386
-9.93598e-06
0.000198872
-9.8724e-06
0.000200346
-9.79817e-06
0.000201806
-9.71314e-06
0.000203251
-9.6171e-06
0.000204679
-9.50983e-06
0.000206087
-9.39102e-06
0.000207476
-9.26032e-06
0.000208842
-9.11732e-06
0.000210185
-8.96153e-06
0.000211501
-8.79238e-06
0.000212791
-8.6092e-06
0.000214051
-8.41123e-06
0.00021528
-8.19757e-06
0.000216476
-7.96719e-06
0.000217637
-7.7189e-06
0.000218761
-7.45135e-06
0.000219846
-7.16293e-06
0.00022089
-6.85185e-06
0.00022189
-6.51601e-06
0.000222846
-6.15301e-06
0.000223755
-5.76009e-06
0.000224615
-5.33411e-06
0.000225426
-4.87147e-06
0.000226187
-4.36807e-06
0.000226897
-3.81929e-06
0.000227558
-3.21997e-06
0.000228174
-2.56437e-06
0.000228748
-1.84628e-06
0.000229289
-1.05906e-06
0.000229808
-1.95825e-07
0.000230322
7.49728e-07
0.000230853
1.78215e-06
0.000231433
2.90489e-06
0.000232103
4.1184e-06
0.000232911
5.41834e-06
0.000233918
6.79345e-06
0.00023519
8.22307e-06
0.000236791
9.67451e-06
0.000238775
1.1101e-05
0.00024116
1.24416e-05
1.3626e-05
0.000243908
0.000160113
-1.09621e-06
0.000160394
-2.14093e-06
0.0001608
-3.04648e-06
0.000161319
-3.85112e-06
0.00016194
-4.57341e-06
0.000162653
-5.22641e-06
0.000163451
-5.82028e-06
0.000164325
-6.36306e-06
0.00016527
-6.86107e-06
0.000166279
-7.31936e-06
0.000167348
-7.74209e-06
0.000168472
-8.13267e-06
0.000169646
-8.494e-06
0.000170868
-8.82847e-06
0.000172132
-9.13815e-06
0.000173437
-9.42479e-06
0.000174778
-9.68989e-06
0.000176153
-9.93477e-06
0.000177559
-1.01605e-05
0.000178994
-1.03682e-05
0.000180454
-1.05586e-05
0.000181938
-1.07324e-05
0.000183443
-1.08904e-05
0.000184968
-1.1033e-05
0.000186509
-1.11609e-05
0.000188065
-1.12745e-05
0.000189634
-1.1374e-05
0.000191214
-1.146e-05
0.000192803
-1.15327e-05
0.000194399
-1.15924e-05
0.000196001
-1.16392e-05
0.000197606
-1.16734e-05
0.000199212
-1.16952e-05
0.000200819
-1.17047e-05
0.000202424
-1.1702e-05
0.000204026
-1.16872e-05
0.000205622
-1.16603e-05
0.000207212
-1.16213e-05
0.000208794
-1.15703e-05
0.000210365
-1.15073e-05
0.000211925
-1.1432e-05
0.000213471
-1.13444e-05
0.000215003
-1.12445e-05
0.000216517
-1.11318e-05
0.000218014
-1.10063e-05
0.000219491
-1.08676e-05
0.000220946
-1.07153e-05
0.000222378
-1.05491e-05
0.000223785
-1.03684e-05
0.000225165
-1.01727e-05
0.000226517
-9.96117e-06
0.000227839
-9.7332e-06
0.00022913
-9.48783e-06
0.000230386
-9.22406e-06
0.000231608
-8.94072e-06
0.000232794
-8.63648e-06
0.000233941
-8.30985e-06
0.000235048
-7.9591e-06
0.000236114
-7.58232e-06
0.000237139
-7.17734e-06
0.00023812
-6.74172e-06
0.000239059
-6.27276e-06
0.000239955
-5.76747e-06
0.000240809
-5.22257e-06
0.000241625
-4.63455e-06
0.000242404
-3.99965e-06
0.000243154
-3.31401e-06
0.000243882
-2.57378e-06
0.000244598
-1.77531e-06
0.000245317
-9.15413e-07
0.000246059
8.31603e-09
0.000246844
9.96549e-07
0.000247703
2.04594e-06
0.00024867
3.15175e-06
0.000249783
4.30478e-06
0.000251086
5.49072e-06
0.00025262
6.68917e-06
0.000254421
7.87317e-06
0.000256513
9.00937e-06
0.000258895
1.00598e-05
1.09863e-05
0.000261534
0.000171322
-1.23714e-06
0.000171612
-2.43131e-06
0.000172035
-3.46874e-06
0.000172576
-4.39224e-06
0.000173225
-5.22231e-06
0.000173972
-5.97314e-06
0.000174807
-6.6561e-06
0.000175725
-7.28028e-06
0.000176717
-7.85289e-06
0.000177777
-8.37972e-06
0.000178901
-8.86552e-06
0.000180082
-9.31422e-06
0.000181318
-9.72914e-06
0.000182602
-1.01131e-05
0.000183933
-1.04683e-05
0.000185305
-1.0797e-05
0.000186716
-1.11008e-05
0.000188163
-1.13813e-05
0.000189642
-1.16397e-05
0.000191151
-1.18772e-05
0.000192688
-1.20947e-05
0.000194249
-1.22931e-05
0.000195832
-1.24732e-05
0.000197435
-1.26357e-05
0.000199055
-1.27811e-05
0.000200691
-1.29099e-05
0.000202339
-1.30227e-05
0.000203999
-1.31197e-05
0.000205668
-1.32015e-05
0.000207344
-1.32682e-05
0.000209025
-1.33202e-05
0.00021071
-1.33576e-05
0.000212396
-1.33808e-05
0.000214081
-1.33898e-05
0.000215764
-1.33848e-05
0.000217443
-1.33659e-05
0.000219116
-1.33332e-05
0.000220781
-1.32867e-05
0.000222438
-1.32264e-05
0.000224083
-1.31524e-05
0.000225716
-1.30644e-05
0.000227334
-1.29625e-05
0.000228936
-1.28465e-05
0.00023052
-1.27162e-05
0.000232086
-1.25713e-05
0.00023363
-1.24116e-05
0.000235151
-1.22368e-05
0.000236649
-1.20463e-05
0.00023812
-1.18398e-05
0.000239564
-1.16167e-05
0.000240979
-1.13763e-05
0.000242364
-1.11179e-05
0.000243717
-1.08407e-05
0.000245037
-1.05437e-05
0.000246322
-1.02258e-05
0.000247572
-9.88591e-06
0.000248784
-9.52262e-06
0.00024996
-9.13445e-06
0.000251097
-8.71978e-06
0.000252197
-8.2768e-06
0.000253259
-7.80358e-06
0.000254284
-7.29803e-06
0.000255275
-6.75794e-06
0.000256233
-6.18103e-06
0.000257163
-5.56503e-06
0.000258072
-4.9077e-06
0.000258965
-4.20706e-06
0.000259852
-3.46146e-06
0.000260747
-2.66987e-06
0.000261664
-1.83211e-06
0.000262621
-9.49051e-07
0.00026364
-2.25682e-08
0.000264744
9.4198e-07
0.000265959
1.9363e-06
0.000267315
2.94966e-06
0.000268837
3.96831e-06
0.000270551
4.97506e-06
0.000272474
5.94966e-06
0.000274614
6.86963e-06
0.000276962
7.71192e-06
8.45581e-06
0.000279493
0.000183315
-1.38242e-06
0.000183616
-2.73167e-06
0.000184054
-3.90715e-06
0.000184617
-4.95536e-06
0.000185294
-5.89888e-06
0.000186074
-6.75292e-06
0.000186948
-7.52999e-06
0.000187908
-8.24021e-06
0.000188947
-8.89169e-06
0.000190058
-9.49097e-06
0.000191236
-1.00434e-05
0.000192476
-1.05535e-05
0.000193772
-1.1025e-05
0.00019512
-1.14611e-05
0.000196516
-1.18644e-05
0.000197956
-1.22373e-05
0.000199438
-1.25818e-05
0.000200956
-1.28996e-05
0.000202509
-1.31922e-05
0.000204093
-1.34608e-05
0.000205705
-1.37066e-05
0.000207342
-1.39307e-05
0.000209003
-1.41337e-05
0.000210684
-1.43167e-05
0.000212384
-1.44801e-05
0.000214099
-1.46246e-05
0.000215827
-1.47508e-05
0.000217566
-1.4859e-05
0.000219315
-1.49498e-05
0.00022107
-1.50235e-05
0.000222831
-1.50803e-05
0.000224594
-1.51207e-05
0.000226358
-1.51447e-05
0.000228121
-1.51527e-05
0.000229881
-1.51448e-05
0.000231637
-1.51211e-05
0.000233386
-1.50818e-05
0.000235126
-1.50269e-05
0.000236856
-1.49564e-05
0.000238574
-1.48703e-05
0.000240279
-1.47687e-05
0.000241968
-1.46514e-05
0.00024364
-1.45183e-05
0.000245293
-1.43693e-05
0.000246926
-1.42041e-05
0.000248537
-1.40224e-05
0.000250124
-1.38241e-05
0.000251687
-1.36087e-05
0.000253223
-1.33757e-05
0.000254731
-1.31247e-05
0.00025621
-1.28551e-05
0.000257658
-1.25663e-05
0.000259075
-1.22575e-05
0.000260459
-1.1928e-05
0.00026181
-1.15767e-05
0.000263127
-1.12028e-05
0.00026441
-1.08051e-05
0.000265658
-1.03825e-05
0.000266872
-9.93373e-06
0.000268053
-9.45751e-06
0.000269202
-8.95247e-06
0.000270321
-8.41725e-06
0.000271413
-7.85053e-06
0.000272484
-7.25108e-06
0.000273536
-6.61782e-06
0.000274579
-5.94998e-06
0.000275619
-5.24719e-06
0.000276667
-4.50965e-06
0.000277735
-3.7383e-06
0.000278838
-2.93503e-06
0.000279992
-2.10285e-06
0.000281216
-1.24597e-06
0.000282527
-3.69494e-07
0.000283945
5.18441e-07
0.000285487
1.40755e-06
0.00028717
2.28544e-06
0.000289006
3.13878e-06
0.000291002
3.95332e-06
0.000293158
4.71433e-06
0.000295462
5.40809e-06
6.02354e-06
0.000297894
0.000196148
-1.53217e-06
0.000196459
-3.04193e-06
0.000196913
-4.36148e-06
0.000197498
-5.5402e-06
0.000198202
-6.60273e-06
0.000199014
-7.56531e-06
0.000199926
-8.44146e-06
0.000200928
-9.24235e-06
0.000202014
-9.97697e-06
0.000203175
-1.06526e-05
0.000204407
-1.12753e-05
0.000205704
-1.18501e-05
0.00020706
-1.23811e-05
0.000208472
-1.2872e-05
0.000209933
-1.33258e-05
0.000211441
-1.37452e-05
0.000212992
-1.41323e-05
0.000214582
-1.44892e-05
0.000216207
-1.48174e-05
0.000217865
-1.51186e-05
0.000219553
-1.53938e-05
0.000221267
-1.56444e-05
0.000223004
-1.58713e-05
0.000224763
-1.60753e-05
0.00022654
-1.62572e-05
0.000228334
-1.64177e-05
0.000230141
-1.65575e-05
0.000231959
-1.6677e-05
0.000233786
-1.67767e-05
0.00023562
-1.68571e-05
0.000237458
-1.69185e-05
0.000239299
-1.69613e-05
0.00024114
-1.69857e-05
0.00024298
-1.69921e-05
0.000244816
-1.69805e-05
0.000246646
-1.69513e-05
0.000248469
-1.69045e-05
0.000250283
-1.68402e-05
0.000252085
-1.67586e-05
0.000253874
-1.66596e-05
0.000255649
-1.65433e-05
0.000257408
-1.64096e-05
0.000259148
-1.62585e-05
0.000260869
-1.60898e-05
0.000262568
-1.59034e-05
0.000264245
-1.5699e-05
0.000265897
-1.54765e-05
0.000267524
-1.52356e-05
0.000269125
-1.49758e-05
0.000270697
-1.46968e-05
0.00027224
-1.43981e-05
0.000273753
-1.40793e-05
0.000275235
-1.37397e-05
0.000276686
-1.33787e-05
0.000278105
-1.29958e-05
0.000279492
-1.25901e-05
0.000280848
-1.21609e-05
0.000282173
-1.17074e-05
0.000283469
-1.12289e-05
0.000284736
-1.07246e-05
0.000285977
-1.01939e-05
0.000287196
-9.63597e-06
0.000288396
-9.05052e-06
0.000289582
-8.43724e-06
0.000290761
-7.79617e-06
0.000291938
-7.12773e-06
0.000293124
-6.43281e-06
0.000294327
-5.71292e-06
0.000295559
-4.9703e-06
0.000296832
-4.20803e-06
0.000298159
-3.43013e-06
0.000299555
-2.64164e-06
0.000301034
-1.84846e-06
0.00030261
-1.05715e-06
0.000304293
-2.75462e-07
0.000306091
4.87217e-07
0.000308009
1.22086e-06
0.000310047
1.9154e-06
0.0003122
2.56098e-06
0.000314458
3.14964e-06
3.67573e-06
0.000316806
0.00020988
-1.68647e-06
0.0002102
-3.36199e-06
0.00021067
-4.83144e-06
0.000211276
-6.14631e-06
0.000212007
-7.33331e-06
0.000212851
-8.40964e-06
0.0002138
-9.38978e-06
0.000214843
-1.02859e-05
0.000215974
-1.11079e-05
0.000217186
-1.18638e-05
0.000218471
-1.25603e-05
0.000219824
-1.3203e-05
0.00022124
-1.37965e-05
0.000222713
-1.43449e-05
0.000224239
-1.48517e-05
0.000225813
-1.53196e-05
0.000227432
-1.57513e-05
0.000229092
-1.61489e-05
0.000230789
-1.65143e-05
0.00023252
-1.68492e-05
0.000234282
-1.7155e-05
0.000236071
-1.7433e-05
0.000237884
-1.76844e-05
0.000239719
-1.791e-05
0.000241573
-1.81108e-05
0.000243443
-1.82876e-05
0.000245327
-1.8441e-05
0.000247222
-1.85717e-05
0.000249126
-1.86803e-05
0.000251036
-1.87671e-05
0.00025295
-1.88327e-05
0.000254867
-1.88774e-05
0.000256783
-1.89017e-05
0.000258697
-1.89057e-05
0.000260606
-1.88898e-05
0.000262509
-1.88542e-05
0.000264404
-1.87991e-05
0.000266289
-1.87246e-05
0.000268161
-1.86309e-05
0.00027002
-1.8518e-05
0.000271863
-1.83861e-05
0.000273689
-1.82351e-05
0.000275495
-1.80651e-05
0.000277282
-1.7876e-05
0.000279046
-1.76676e-05
0.000280787
-1.744e-05
0.000282504
-1.71929e-05
0.000284194
-1.69261e-05
0.000285858
-1.66394e-05
0.000287494
-1.63326e-05
0.000289102
-1.60054e-05
0.00029068
-1.56574e-05
0.000292229
-1.52882e-05
0.000293747
-1.48976e-05
0.000295237
-1.44851e-05
0.000296697
-1.40503e-05
0.000298129
-1.35929e-05
0.000299534
-1.31125e-05
0.000300915
-1.26089e-05
0.000302272
-1.20818e-05
0.000303609
-1.15313e-05
0.000304931
-1.09573e-05
0.00030624
-1.03602e-05
0.000307544
-9.74058e-06
0.000308847
-9.09932e-06
0.000310157
-8.43771e-06
0.000311482
-7.75754e-06
0.00031283
-7.0611e-06
0.000314211
-6.35131e-06
0.000315635
-5.63171e-06
0.000317111
-4.90655e-06
0.00031865
-4.18072e-06
0.000320261
-3.45973e-06
0.000321954
-2.74957e-06
0.000323735
-2.05661e-06
0.000325609
-1.38688e-06
0.000327577
-7.46746e-07
0.000329635
-1.42594e-07
0.000331776
4.19396e-07
0.000333992
9.34339e-07
1.39924e-06
0.000336268
0.000224573
-1.84531e-06
0.000224902
-3.69164e-06
0.000225388
-5.31658e-06
0.000226014
-6.77308e-06
0.000226771
-8.0898e-06
0.000227646
-9.28495e-06
0.000228631
-1.03739e-05
0.000229715
-1.13697e-05
0.00023089
-1.22832e-05
0.000232149
-1.31232e-05
0.000233486
-1.3897e-05
0.000234894
-1.46107e-05
0.000236368
-1.52697e-05
0.000237901
-1.58782e-05
0.00023949
-1.64402e-05
0.000241129
-1.69588e-05
0.000242815
-1.74369e-05
0.000244543
-1.78768e-05
0.00024631
-1.82808e-05
0.000248112
-1.86507e-05
0.000249945
-1.89881e-05
0.000251807
-1.92943e-05
0.000253693
-1.95708e-05
0.000255602
-1.98185e-05
0.00025753
-2.00386e-05
0.000259474
-2.02317e-05
0.000261432
-2.03989e-05
0.000263402
-2.05407e-05
0.000265379
-2.06578e-05
0.000267363
-2.07507e-05
0.000269351
-2.082e-05
0.00027134
-2.08662e-05
0.000273328
-2.08896e-05
0.000275313
-2.08906e-05
0.000277293
-2.08696e-05
0.000279266
-2.08268e-05
0.00028123
-2.07625e-05
0.000283182
-2.06769e-05
0.000285122
-2.05703e-05
0.000287047
-2.04427e-05
0.000288955
-2.02943e-05
0.000290846
-2.01253e-05
0.000292716
-1.99357e-05
0.000294566
-1.97254e-05
0.000296393
-1.94947e-05
0.000298197
-1.92434e-05
0.000299976
-1.89715e-05
0.000301729
-1.86789e-05
0.000303455
-1.83657e-05
0.000305154
-1.80316e-05
0.000306826
-1.76767e-05
0.000308469
-1.73007e-05
0.000310085
-1.69037e-05
0.000311673
-1.64854e-05
0.000313234
-1.60459e-05
0.000314768
-1.55851e-05
0.000316279
-1.5103e-05
0.000317766
-1.45998e-05
0.000319233
-1.40756e-05
0.000320682
-1.35308e-05
0.000322117
-1.29659e-05
0.000323541
-1.23815e-05
0.000324959
-1.17787e-05
0.000326377
-1.11585e-05
0.000327801
-1.05226e-05
0.000329236
-9.87271e-06
0.000330689
-9.21116e-06
0.000332169
-8.54061e-06
0.000333682
-7.86416e-06
0.000335235
-7.18535e-06
0.000336837
-6.50813e-06
0.000338493
-5.83682e-06
0.000340209
-5.17604e-06
0.000341991
-4.53059e-06
0.000343839
-3.90532e-06
0.000345757
-3.30499e-06
0.000347745
-2.73412e-06
0.000349799
-2.1968e-06
0.000351914
-1.69583e-06
0.000354082
-1.23362e-06
-8.1144e-07
0.000356293
0.000240294
-2.00858e-06
0.000240633
-4.03054e-06
0.000241133
-5.81627e-06
0.000241779
-7.41962e-06
0.000242561
-8.87111e-06
0.000243466
-1.01899e-05
0.000244484
-1.13922e-05
0.000245607
-1.2492e-05
0.000246825
-1.3501e-05
0.00024813
-1.44288e-05
0.000249517
-1.52832e-05
0.000250977
-1.60712e-05
0.000252506
-1.67983e-05
0.000254098
-1.74695e-05
0.000255747
-1.80889e-05
0.000257448
-1.86602e-05
0.000259198
-1.91864e-05
0.000260992
-1.96703e-05
0.000262825
-2.01141e-05
0.000264695
-2.05201e-05
0.000266597
-2.08898e-05
0.000268528
-2.12251e-05
0.000270485
-2.15272e-05
0.000272464
-2.17974e-05
0.000274463
-2.20369e-05
0.000276478
-2.22466e-05
0.000278506
-2.24274e-05
0.000280546
-2.25801e-05
0.000282594
-2.27054e-05
0.000284648
-2.28041e-05
0.000286704
-2.28766e-05
0.000288762
-2.29236e-05
0.000290818
-2.29455e-05
0.000292871
-2.29428e-05
0.000294917
-2.29159e-05
0.000296956
-2.28651e-05
0.000298984
-2.27908e-05
0.000301001
-2.26933e-05
0.000303004
-2.25729e-05
0.000304991
-2.24298e-05
0.000306961
-2.22643e-05
0.000308913
-2.20766e-05
0.000310844
-2.18668e-05
0.000312754