/*--------------------------------*- C++ -*----------------------------------*\
| =========                 |                                                 |
| \\      /  F ield         | OpenFOAM: The Open Source CFD Toolbox           |
|  \\    /   O peration     | Version:  2106                                  |
|   \\  /    A nd           | Website:  www.openfoam.com                      |
|    \\/     M anipulation  |                                                 |
\*---------------------------------------------------------------------------*/
FoamFile
{
    version     2.0;
    format      ascii;
    arch        "LSB;label=32;scalar=64";
    class       volScalarField;
    location    "7.8";
    object      T;
}
// * * * * * * * * * * * * * * * * * * * * * * * * * * * * * * * * * * * * * //

dimensions      [0 0 0 1 0 0 0];

internalField   nonuniform List<scalar> 
12013
(
300.004
300.011
300.018
300.026
300.034
300.043
300.051
300.061
300.07
300.08
300.09
300.101
300.112
300.123
300.135
300.147
300.16
300.173
300.186
300.2
300.215
300.229
300.245
300.261
300.277
300.294
300.311
300.329
300.348
300.367
300.386
300.407
300.427
300.449
300.471
300.494
300.517
300.541
300.566
300.591
300.617
300.644
300.672
300.7
300.73
300.76
300.791
300.822
300.855
300.889
300.923
300.959
300.995
301.033
301.071
301.111
301.152
301.194
301.237
301.282
301.328
301.375
301.424
301.475
301.527
301.581
301.637
301.695
301.755
301.818
301.883
301.951
302.023
302.098
302.177
302.262
302.352
302.451
302.559
302.683
302.83
300.004
300.011
300.018
300.026
300.034
300.043
300.051
300.061
300.07
300.08
300.09
300.101
300.112
300.123
300.135
300.147
300.16
300.173
300.186
300.2
300.215
300.229
300.245
300.261
300.277
300.294
300.311
300.329
300.348
300.367
300.386
300.407
300.427
300.449
300.471
300.494
300.517
300.541
300.566
300.591
300.617
300.644
300.672
300.7
300.73
300.76
300.79
300.822
300.855
300.888
300.923
300.958
300.995
301.032
301.071
301.111
301.152
301.194
301.237
301.281
301.327
301.375
301.424
301.474
301.526
301.58
301.636
301.694
301.754
301.816
301.881
301.949
302.02
302.095
302.174
302.257
302.346
302.442
302.547
302.661
302.788
300.004
300.011
300.018
300.026
300.034
300.043
300.051
300.061
300.07
300.08
300.09
300.101
300.112
300.123
300.135
300.147
300.16
300.173
300.186
300.2
300.215
300.229
300.245
300.261
300.277
300.294
300.311
300.329
300.348
300.367
300.386
300.407
300.427
300.449
300.471
300.494
300.517
300.541
300.566
300.591
300.617
300.644
300.672
300.7
300.729
300.759
300.79
300.822
300.855
300.888
300.923
300.958
300.994
301.032
301.07
301.11
301.151
301.193
301.236
301.281
301.326
301.374
301.422
301.473
301.525
301.578
301.634
301.692
301.751
301.813
301.878
301.945
302.015
302.089
302.166
302.247
302.333
302.425
302.522
302.626
302.734
300.004
300.011
300.018
300.026
300.034
300.043
300.051
300.061
300.07
300.08
300.09
300.101
300.112
300.123
300.135
300.147
300.16
300.173
300.186
300.2
300.215
300.229
300.245
300.261
300.277
300.294
300.311
300.329
300.348
300.367
300.386
300.407
300.427
300.449
300.471
300.493
300.517
300.541
300.565
300.591
300.617
300.644
300.671
300.7
300.729
300.759
300.79
300.822
300.854
300.888
300.922
300.957
300.994
301.031
301.07
301.109
301.15
301.192
301.235
301.279
301.325
301.372
301.42
301.471
301.522
301.576
301.631
301.688
301.747
301.808
301.872
301.938
302.007
302.079
302.154
302.232
302.314
302.4
302.49
302.582
302.676
300.004
300.011
300.018
300.026
300.034
300.043
300.051
300.061
300.07
300.08
300.09
300.101
300.112
300.123
300.135
300.147
300.16
300.173
300.186
300.2
300.215
300.229
300.245
300.261
300.277
300.294
300.311
300.329
300.348
300.367
300.386
300.406
300.427
300.449
300.471
300.493
300.517
300.541
300.565
300.591
300.617
300.644
300.671
300.699
300.729
300.759
300.789
300.821
300.853
300.887
300.921
300.956
300.993
301.03
301.068
301.108
301.148
301.19
301.233
301.277
301.323
301.369
301.418
301.467
301.518
301.571
301.626
301.682
301.74
301.801
301.863
301.928
301.995
302.065
302.137
302.212
302.289
302.369
302.451
302.534
302.617
300.004
300.011
300.018
300.026
300.034
300.043
300.051
300.061
300.07
300.08
300.09
300.101
300.112
300.123
300.135
300.147
300.16
300.173
300.186
300.2
300.214
300.229
300.245
300.261
300.277
300.294
300.311
300.329
300.347
300.366
300.386
300.406
300.427
300.448
300.47
300.493
300.516
300.54
300.565
300.59
300.616
300.643
300.671
300.699
300.728
300.758
300.789
300.82
300.853
300.886
300.92
300.955
300.991
301.029
301.067
301.106
301.146
301.188
301.23
301.274
301.319
301.366
301.413
301.463
301.513
301.565
301.619
301.675
301.732
301.791
301.852
301.915
301.98
302.047
302.116
302.187
302.259
302.333
302.408
302.484
302.558
300.004
300.011
300.018
300.026
300.034
300.043
300.051
300.061
300.07
300.08
300.09
300.101
300.112
300.123
300.135
300.147
300.16
300.173
300.186
300.2
300.214
300.229
300.245
300.26
300.277
300.294
300.311
300.329
300.347
300.366
300.386
300.406
300.427
300.448
300.47
300.493
300.516
300.54
300.564
300.59
300.616
300.642
300.67
300.698
300.727
300.757
300.788
300.819
300.851
300.885
300.919
300.954
300.99
301.027
301.064
301.103
301.144
301.185
301.227
301.27
301.315
301.361
301.408
301.457
301.507
301.558
301.611
301.665
301.721
301.778
301.838
301.898
301.961
302.025
302.09
302.157
302.225
302.294
302.362
302.431
302.498
300.004
300.011
300.018
300.026
300.034
300.043
300.051
300.061
300.07
300.08
300.09
300.101
300.112
300.123
300.135
300.147
300.16
300.173
300.186
300.2
300.214
300.229
300.245
300.26
300.277
300.293
300.311
300.329
300.347
300.366
300.386
300.406
300.426
300.448
300.47
300.492
300.516
300.539
300.564
300.589
300.615
300.642
300.669
300.697
300.726
300.756
300.786
300.818
300.85
300.883
300.917
300.952
300.987
301.024
301.062
301.1
301.14
301.181
301.223
301.266
301.31
301.355
301.402
301.449
301.498
301.549
301.6
301.653
301.708
301.763
301.82
301.879
301.938
301.999
302.061
302.124
302.187
302.25
302.314
302.376
302.438
300.004
300.011
300.018
300.026
300.034
300.043
300.051
300.061
300.07
300.08
300.09
300.101
300.112
300.123
300.135
300.147
300.159
300.172
300.186
300.2
300.214
300.229
300.244
300.26
300.276
300.293
300.311
300.328
300.347
300.366
300.385
300.405
300.426
300.447
300.469
300.492
300.515
300.539
300.563
300.588
300.614
300.641
300.668
300.696
300.725
300.754
300.785
300.816
300.848
300.881
300.914
300.949
300.984
301.021
301.058
301.096
301.136
301.176
301.217
301.26
301.303
301.348
301.393
301.44
301.488
301.537
301.587
301.639
301.691
301.745
301.8
301.856
301.913
301.97
302.028
302.087
302.146
302.205
302.263
302.321
302.377
300.004
300.011
300.018
300.026
300.034
300.043
300.051
300.061
300.07
300.08
300.09
300.101
300.112
300.123
300.135
300.147
300.159
300.172
300.186
300.2
300.214
300.229
300.244
300.26
300.276
300.293
300.31
300.328
300.347
300.365
300.385
300.405
300.426
300.447
300.469
300.491
300.514
300.538
300.562
300.587
300.613
300.64
300.667
300.695
300.723
300.753
300.783
300.814
300.845
300.878
300.911
300.946
300.981
301.017
301.054
301.092
301.13
301.17
301.211
301.252
301.295
301.339
301.383
301.429
301.476
301.524
301.572
301.622
301.673
301.724
301.777
301.83
301.884
301.938
301.993
302.048
302.102
302.157
302.211
302.264
302.316
300.004
300.011
300.018
300.026
300.034
300.043
300.051
300.061
300.07
300.08
300.09
300.101
300.111
300.123
300.135
300.147
300.159
300.172
300.186
300.2
300.214
300.229
300.244
300.26
300.276
300.293
300.31
300.328
300.346
300.365
300.384
300.404
300.425
300.446
300.468
300.49
300.513
300.537
300.561
300.586
300.612
300.638
300.665
300.693
300.721
300.75
300.78
300.811
300.842
300.875
300.908
300.942
300.976
301.012
301.048
301.086
301.124
301.163
301.203
301.244
301.285
301.328
301.372
301.416
301.462
301.508
301.555
301.603
301.651
301.701
301.751
301.801
301.852
301.903
301.954
302.006
302.057
302.107
302.157
302.207
302.255
300.004
300.011
300.018
300.026
300.034
300.043
300.051
300.06
300.07
300.08
300.09
300.1
300.111
300.123
300.134
300.147
300.159
300.172
300.186
300.199
300.214
300.228
300.244
300.259
300.276
300.292
300.31
300.327
300.346
300.364
300.384
300.404
300.424
300.445
300.467
300.489
300.512
300.536
300.56
300.585
300.61
300.636
300.663
300.691
300.719
300.748
300.777
300.808
300.839
300.871
300.903
300.937
300.971
301.006
301.042
301.079
301.116
301.154
301.194
301.234
301.274
301.316
301.358
301.401
301.445
301.49
301.535
301.581
301.627
301.674
301.722
301.769
301.817
301.865
301.913
301.961
302.009
302.056
302.103
302.148
302.193
300.004
300.011
300.018
300.026
300.034
300.043
300.051
300.06
300.07
300.08
300.09
300.1
300.111
300.123
300.134
300.146
300.159
300.172
300.185
300.199
300.213
300.228
300.243
300.259
300.275
300.292
300.309
300.327
300.345
300.364
300.383
300.403
300.423
300.444
300.466
300.488
300.511
300.534
300.558
300.583
300.608
300.634
300.661
300.688
300.716
300.745
300.774
300.804
300.835
300.866
300.898
300.931
300.965
300.999
301.035
301.071
301.107
301.145
301.183
301.222
301.261
301.302
301.343
301.384
301.426
301.469
301.513
301.556
301.601
301.645
301.69
301.735
301.78
301.825
301.87
301.915
301.959
302.003
302.047
302.089
302.131
300.004
300.011
300.018
300.026
300.034
300.043
300.051
300.06
300.07
300.08
300.09
300.1
300.111
300.123
300.134
300.146
300.159
300.172
300.185
300.199
300.213
300.228
300.243
300.259
300.275
300.291
300.309
300.326
300.344
300.363
300.382
300.402
300.422
300.443
300.465
300.487
300.509
300.533
300.556
300.581
300.606
300.632
300.658
300.685
300.712
300.741
300.77
300.799
300.83
300.861
300.892
300.925
300.958
300.992
301.026
301.061
301.097
301.133
301.171
301.208
301.247
301.286
301.325
301.365
301.406
301.447
301.488
301.53
301.572
301.614
301.656
301.699
301.741
301.783
301.826
301.867
301.909
301.95
301.99
302.03
302.069
300.004
300.011
300.018
300.026
300.034
300.042
300.051
300.06
300.07
300.08
300.09
300.1
300.111
300.122
300.134
300.146
300.159
300.171
300.185
300.199
300.213
300.227
300.243
300.258
300.274
300.291
300.308
300.325
300.344
300.362
300.381
300.401
300.421
300.442
300.463
300.485
300.507
300.53
300.554
300.578
300.603
300.629
300.655
300.681
300.708
300.736
300.765
300.794
300.824
300.854
300.885
300.917
300.95
300.983
301.016
301.05
301.085
301.121
301.157
301.193
301.23
301.268
301.306
301.344
301.383
301.422
301.461
301.501
301.541
301.58
301.62
301.66
301.7
301.74
301.779
301.818
301.857
301.895
301.932
301.969
302.006
300.004
300.011
300.018
300.026
300.034
300.042
300.051
300.06
300.07
300.079
300.09
300.1
300.111
300.122
300.134
300.146
300.158
300.171
300.184
300.198
300.212
300.227
300.242
300.258
300.274
300.29
300.307
300.325
300.343
300.361
300.38
300.4
300.42
300.44
300.461
300.483
300.505
300.528
300.551
300.575
300.6
300.625
300.651
300.677
300.704
300.731
300.759
300.788
300.817
300.847
300.878
300.909
300.94
300.972
301.005
301.038
301.072
301.106
301.141
301.176
301.212
301.248
301.284
301.321
301.358
301.395
301.432
301.47
301.507
301.545
301.583
301.62
301.657
301.694
301.731
301.768
301.804
301.839
301.874
301.909
301.943
300.004
300.011
300.018
300.026
300.034
300.042
300.051
300.06
300.07
300.079
300.089
300.1
300.111
300.122
300.134
300.146
300.158
300.171
300.184
300.198
300.212
300.226
300.241
300.257
300.273
300.289
300.306
300.324
300.341
300.36
300.379
300.398
300.418
300.438
300.459
300.481
300.503
300.525
300.548
300.572
300.596
300.621
300.646
300.672
300.698
300.725
300.753
300.781
300.81
300.839
300.868
300.899
300.929
300.961
300.992
301.024
301.057
301.09
301.124
301.157
301.191
301.226
301.261
301.296
301.331
301.366
301.401
301.437
301.472
301.508
301.543
301.578
301.613
301.648
301.682
301.716
301.75
301.783
301.816
301.848
301.88
300.004
300.011
300.018
300.026
300.034
300.042
300.051
300.06
300.069
300.079
300.089
300.1
300.11
300.122
300.133
300.145
300.158
300.17
300.184
300.197
300.211
300.226
300.241
300.256
300.272
300.288
300.305
300.322
300.34
300.358
300.377
300.396
300.416
300.436
300.457
300.478
300.5
300.522
300.545
300.568
300.592
300.616
300.641
300.666
300.692
300.719
300.746
300.773
300.801
300.829
300.858
300.888
300.917
300.948
300.978
301.009
301.041
301.072
301.105
301.137
301.17
301.202
301.235
301.269
301.302
301.335
301.369
301.402
301.436
301.469
301.502
301.535
301.568
301.6
301.632
301.664
301.695
301.726
301.757
301.787
301.817
300.003
300.011
300.018
300.026
300.034
300.042
300.051
300.06
300.069
300.079
300.089
300.099
300.11
300.121
300.133
300.145
300.157
300.17
300.183
300.197
300.211
300.225
300.24
300.255
300.271
300.287
300.304
300.321
300.338
300.357
300.375
300.394
300.414
300.433
300.454
300.475
300.496
300.518
300.541
300.564
300.587
300.611
300.635
300.66
300.685
300.711
300.738
300.764
300.791
300.819
300.847
300.875
300.904
300.933
300.963
300.993
301.023
301.053
301.084
301.115
301.146
301.177
301.209
301.24
301.272
301.303
301.335
301.366
301.397
301.429
301.46
301.491
301.521
301.551
301.581
301.611
301.64
301.669
301.698
301.726
301.754
300.003
300.011
300.018
300.026
300.034
300.042
300.051
300.06
300.069
300.079
300.089
300.099
300.11
300.121
300.133
300.144
300.157
300.169
300.182
300.196
300.21
300.224
300.239
300.254
300.27
300.286
300.302
300.319
300.337
300.355
300.373
300.392
300.411
300.431
300.451
300.471
300.492
300.514
300.536
300.559
300.581
300.605
300.629
300.653
300.678
300.703
300.728
300.754
300.781
300.807
300.834
300.862
300.89
300.918
300.946
300.975
301.004
301.033
301.062
301.091
301.121
301.15
301.18
301.21
301.24
301.269
301.299
301.329
301.358
301.387
301.416
301.445
301.474
301.502
301.53
301.558
301.585
301.612
301.639
301.665
301.691
300.003
300.011
300.018
300.026
300.034
300.042
300.051
300.06
300.069
300.078
300.088
300.099
300.11
300.121
300.132
300.144
300.156
300.169
300.182
300.195
300.209
300.223
300.238
300.253
300.268
300.284
300.301
300.317
300.335
300.352
300.37
300.389
300.408
300.427
300.447
300.467
300.488
300.509
300.531
300.553
300.575
300.598
300.621
300.645
300.669
300.693
300.718
300.743
300.769
300.795
300.821
300.847
300.874
300.901
300.928
300.955
300.983
301.011
301.038
301.066
301.094
301.122
301.15
301.179
301.207
301.235
301.262
301.29
301.318
301.345
301.372
301.399
301.426
301.453
301.479
301.505
301.53
301.555
301.58
301.605
301.629
300.003
300.011
300.018
300.026
300.034
300.042
300.05
300.059
300.069
300.078
300.088
300.098
300.109
300.12
300.131
300.143
300.155
300.168
300.181
300.194
300.208
300.222
300.236
300.251
300.267
300.282
300.299
300.315
300.332
300.35
300.367
300.386
300.404
300.423
300.443
300.463
300.483
300.504
300.525
300.546
300.568
300.591
300.613
300.636
300.66
300.683
300.707
300.732
300.756
300.781
300.806
300.831
300.857
300.883
300.909
300.935
300.961
300.987
301.014
301.04
301.067
301.093
301.12
301.146
301.173
301.199
301.225
301.251
301.277
301.303
301.328
301.353
301.378
301.403
301.427
301.452
301.475
301.499
301.522
301.545
301.567
300.003
300.01
300.018
300.025
300.033
300.042
300.05
300.059
300.068
300.078
300.088
300.098
300.109
300.12
300.131
300.143
300.155
300.167
300.18
300.193
300.207
300.221
300.235
300.25
300.265
300.28
300.296
300.313
300.33
300.347
300.364
300.382
300.401
300.419
300.438
300.458
300.478
300.498
300.519
300.54
300.561
300.582
300.604
300.627
300.649
300.672
300.695
300.719
300.742
300.766
300.79
300.814
300.839
300.864
300.888
300.913
300.938
300.963
300.988
301.013
301.038
301.063
301.088
301.113
301.138
301.162
301.187
301.211
301.235
301.26
301.283
301.307
301.33
301.353
301.376
301.399
301.421
301.443
301.465
301.486
301.507
300.003
300.01
300.018
300.025
300.033
300.041
300.05
300.059
300.068
300.078
300.087
300.098
300.108
300.119
300.13
300.142
300.154
300.166
300.179
300.192
300.205
300.219
300.233
300.248
300.263
300.278
300.294
300.31
300.327
300.343
300.361
300.378
300.396
300.415
300.433
300.452
300.472
300.491
300.511
300.532
300.553
300.574
300.595
300.616
300.638
300.66
300.682
300.705
300.728
300.75
300.773
300.797
300.82
300.843
300.867
300.89
300.914
300.938
300.961
300.985
301.009
301.032
301.056
301.079
301.102
301.125
301.148
301.171
301.194
301.216
301.239
301.261
301.283
301.304
301.325
301.346
301.367
301.388
301.408
301.428
301.447
300.003
300.01
300.018
300.025
300.033
300.041
300.05
300.059
300.068
300.077
300.087
300.097
300.107
300.118
300.129
300.141
300.153
300.165
300.178
300.19
300.204
300.217
300.231
300.246
300.261
300.276
300.291
300.307
300.323
300.34
300.357
300.374
300.392
300.41
300.428
300.446
300.465
300.484
300.504
300.524
300.544
300.564
300.584
300.605
300.626
300.647
300.669
300.69
300.712
300.734
300.756
300.778
300.8
300.822
300.845
300.867
300.889
300.912
300.934
300.956
300.979
301.001
301.023
301.045
301.067
301.088
301.11
301.131
301.153
301.174
301.194
301.215
301.235
301.256
301.275
301.295
301.315
301.334
301.352
301.371
301.389
300.003
300.01
300.018
300.025
300.033
300.041
300.049
300.058
300.067
300.077
300.086
300.096
300.107
300.117
300.128
300.14
300.152
300.164
300.176
300.189
300.202
300.216
300.229
300.244
300.258
300.273
300.288
300.304
300.32
300.336
300.352
300.369
300.386
300.404
300.422
300.44
300.458
300.477
300.496
300.515
300.534
300.554
300.574
300.594
300.614
300.634
300.655
300.675
300.696
300.717
300.738
300.759
300.78
300.801
300.822
300.843
300.864
300.886
300.907
300.928
300.949
300.969
300.99
301.011
301.031
301.052
301.072
301.092
301.112
301.131
301.151
301.17
301.189
301.208
301.227
301.245
301.263
301.281
301.299
301.316
301.333
300.003
300.01
300.017
300.025
300.033
300.041
300.049
300.058
300.067
300.076
300.086
300.096
300.106
300.117
300.128
300.139
300.15
300.162
300.175
300.187
300.2
300.214
300.227
300.241
300.255
300.27
300.285
300.3
300.316
300.332
300.348
300.364
300.381
300.398
300.415
300.433
300.451
300.469
300.487
300.505
300.524
300.543
300.562
300.581
300.601
300.62
300.64
300.659
300.679
300.699
300.719
300.739
300.759
300.779
300.799
300.819
300.839
300.859
300.879
300.899
300.918
300.938
300.958
300.977
300.996
301.015
301.034
301.053
301.072
301.09
301.108
301.126
301.144
301.162
301.179
301.196
301.213
301.23
301.246
301.262
301.278
300.003
300.01
300.017
300.025
300.032
300.04
300.049
300.057
300.066
300.076
300.085
300.095
300.105
300.116
300.126
300.138
300.149
300.161
300.173
300.185
300.198
300.211
300.225
300.238
300.252
300.267
300.281
300.296
300.312
300.327
300.343
300.359
300.375
300.392
300.409
300.426
300.443
300.46
300.478
300.496
300.514
300.532
300.55
300.569
300.587
300.606
300.625
300.643
300.662
300.681
300.7
300.719
300.738
300.757
300.776
300.795
300.814
300.833
300.851
300.87
300.889
300.907
300.925
300.944
300.962
300.98
300.997
301.015
301.032
301.05
301.067
301.084
301.1
301.117
301.133
301.149
301.165
301.181
301.196
301.211
301.226
300.003
300.01
300.017
300.025
300.032
300.04
300.048
300.057
300.066
300.075
300.084
300.094
300.104
300.115
300.125
300.136
300.148
300.159
300.171
300.183
300.196
300.209
300.222
300.236
300.249
300.263
300.278
300.292
300.307
300.322
300.338
300.353
300.369
300.385
300.401
300.418
300.435
300.451
300.468
300.486
300.503
300.52
300.538
300.556
300.573
300.591
300.609
300.627
300.645
300.663
300.681
300.699
300.717
300.735
300.753
300.771
300.789
300.807
300.824
300.842
300.86
300.877
300.894
300.911
300.928
300.945
300.962
300.978
300.995
301.011
301.027
301.043
301.058
301.074
301.089
301.104
301.119
301.134
301.148
301.162
301.176
300.003
300.01
300.017
300.024
300.032
300.04
300.048
300.056
300.065
300.074
300.084
300.093
300.103
300.113
300.124
300.135
300.146
300.158
300.169
300.181
300.194
300.206
300.219
300.232
300.246
300.26
300.274
300.288
300.302
300.317
300.332
300.347
300.363
300.378
300.394
300.41
300.426
300.442
300.459
300.475
300.492
300.509
300.526
300.543
300.56
300.577
300.594
300.611
300.628
300.645
300.662
300.68
300.697
300.714
300.731
300.748
300.765
300.781
300.798
300.815
300.831
300.848
300.864
300.88
300.896
300.912
300.928
300.943
300.959
300.974
300.989
301.004
301.018
301.033
301.047
301.061
301.075
301.089
301.103
301.116
301.129
300.003
300.01
300.017
300.024
300.032
300.039
300.048
300.056
300.065
300.073
300.083
300.092
300.102
300.112
300.123
300.133
300.144
300.156
300.167
300.179
300.191
300.204
300.216
300.229
300.242
300.256
300.27
300.284
300.298
300.312
300.327
300.341
300.356
300.371
300.387
300.402
300.418
300.433
300.449
300.465
300.481
300.497
300.514
300.53
300.546
300.562
300.579
300.595
300.611
300.628
300.644
300.661
300.677
300.693
300.709
300.725
300.741
300.757
300.773
300.789
300.804
300.82
300.835
300.85
300.866
300.881
300.895
300.91
300.925
300.939
300.953
300.967
300.981
300.995
301.008
301.021
301.035
301.048
301.06
301.073
301.085
300.003
300.01
300.017
300.024
300.031
300.039
300.047
300.055
300.064
300.073
300.082
300.091
300.101
300.111
300.121
300.132
300.143
300.154
300.165
300.177
300.189
300.201
300.213
300.226
300.239
300.252
300.265
300.279
300.293
300.307
300.321
300.335
300.35
300.365
300.379
300.394
300.409
300.424
300.44
300.455
300.471
300.486
300.502
300.517
300.533
300.548
300.564
300.58
300.595
300.611
300.627
300.642
300.658
300.673
300.689
300.704
300.719
300.734
300.749
300.764
300.779
300.794
300.808
300.823
300.837
300.851
300.865
300.879
300.893
300.906
300.92
300.933
300.946
300.959
300.972
300.984
300.997
301.009
301.021
301.033
301.045
300.003
300.01
300.017
300.024
300.031
300.039
300.047
300.055
300.063
300.072
300.081
300.09
300.1
300.11
300.12
300.13
300.141
300.152
300.163
300.175
300.186
300.198
300.21
300.223
300.235
300.248
300.261
300.275
300.288
300.302
300.315
300.329
300.344
300.358
300.372
300.387
300.401
300.416
300.431
300.445
300.46
300.475
300.49
300.505
300.52
300.535
300.55
300.565
300.58
300.595
300.61
300.625
300.64
300.655
300.669
300.684
300.698
300.713
300.727
300.741
300.755
300.769
300.783
300.797
300.811
300.824
300.837
300.851
300.864
300.876
300.889
300.902
300.914
300.926
300.939
300.951
300.962
300.974
300.985
300.997
301.008
300.003
300.01
300.016
300.023
300.031
300.038
300.046
300.054
300.063
300.071
300.08
300.089
300.099
300.108
300.118
300.129
300.139
300.15
300.161
300.172
300.184
300.195
300.207
300.22
300.232
300.245
300.257
300.27
300.283
300.297
300.31
300.324
300.337
300.351
300.365
300.379
300.393
300.408
300.422
300.436
300.451
300.465
300.48
300.494
300.508
300.523
300.537
300.552
300.566
300.581
300.595
300.609
300.623
300.638
300.652
300.666
300.68
300.693
300.707
300.721
300.734
300.747
300.761
300.774
300.787
300.8
300.812
300.825
300.837
300.85
300.862
300.874
300.886
300.897
300.909
300.92
300.931
300.943
300.954
300.964
300.975
300.003
300.01
300.016
300.023
300.03
300.038
300.046
300.054
300.062
300.07
300.079
300.088
300.098
300.107
300.117
300.127
300.138
300.148
300.159
300.17
300.181
300.193
300.205
300.217
300.229
300.241
300.254
300.266
300.279
300.292
300.305
300.318
300.332
300.345
300.359
300.373
300.386
300.4
300.414
300.428
300.442
300.456
300.47
300.484
300.498
300.512
300.526
300.54
300.554
300.567
300.581
300.595
300.609
300.622
300.636
300.649
300.663
300.676
300.689
300.702
300.715
300.728
300.741
300.753
300.766
300.778
300.79
300.802
300.814
300.826
300.838
300.849
300.86
300.872
300.883
300.894
300.904
300.915
300.926
300.936
300.946
300.003
300.009
300.016
300.023
300.03
300.037
300.045
300.053
300.061
300.07
300.078
300.087
300.097
300.106
300.116
300.126
300.136
300.146
300.157
300.168
300.179
300.19
300.202
300.214
300.226
300.238
300.25
300.263
300.275
300.288
300.301
300.314
300.327
300.34
300.353
300.366
300.38
300.393
300.407
300.42
300.434
300.448
300.461
300.475
300.488
300.502
300.516
300.529
300.543
300.556
300.569
300.583
300.596
300.609
300.622
300.635
300.648
300.661
300.674
300.686
300.699
300.711
300.723
300.736
300.748
300.76
300.771
300.783
300.794
300.806
300.817
300.828
300.839
300.85
300.861
300.871
300.882
300.892
300.902
300.912
300.922
300.003
300.009
300.016
300.023
300.03
300.037
300.045
300.052
300.061
300.069
300.078
300.086
300.096
300.105
300.115
300.124
300.135
300.145
300.155
300.166
300.177
300.188
300.2
300.211
300.223
300.235
300.247
300.259
300.272
300.284
300.297
300.309
300.322
300.335
300.348
300.361
300.374
300.388
300.401
300.414
300.427
300.441
300.454
300.467
300.481
300.494
300.507
300.52
300.533
300.546
300.559
300.572
300.585
300.598
300.611
300.624
300.636
300.649
300.661
300.673
300.685
300.697
300.709
300.721
300.733
300.744
300.756
300.767
300.778
300.789
300.8
300.811
300.822
300.832
300.843
300.853
300.863
300.873
300.883
300.892
300.902
300.003
300.009
300.016
300.023
300.03
300.037
300.044
300.052
300.06
300.068
300.077
300.086
300.095
300.104
300.114
300.123
300.133
300.144
300.154
300.165
300.175
300.187
300.198
300.209
300.221
300.233
300.245
300.257
300.269
300.281
300.294
300.306
300.319
300.331
300.344
300.357
300.37
300.383
300.396
300.409
300.422
300.435
300.448
300.461
300.474
300.487
300.5
300.513
300.526
300.539
300.552
300.564
300.577
300.59
300.602
300.614
300.627
300.639
300.651
300.663
300.675
300.687
300.698
300.71
300.721
300.733
300.744
300.755
300.766
300.777
300.787
300.798
300.808
300.818
300.829
300.839
300.848
300.858
300.868
300.877
300.887
300.003
300.009
300.016
300.022
300.029
300.037
300.044
300.052
300.06
300.068
300.076
300.085
300.094
300.103
300.113
300.122
300.132
300.142
300.153
300.163
300.174
300.185
300.196
300.208
300.219
300.231
300.243
300.255
300.267
300.279
300.291
300.304
300.316
300.329
300.341
300.354
300.367
300.38
300.392
300.405
300.418
300.431
300.444
300.457
300.47
300.482
300.495
300.508
300.521
300.533
300.546
300.559
300.571
300.583
300.596
300.608
300.62
300.632
300.644
300.656
300.667
300.679
300.691
300.702
300.713
300.724
300.735
300.746
300.757
300.768
300.778
300.788
300.799
300.809
300.819
300.829
300.838
300.848
300.857
300.867
300.876
300.003
300.009
300.016
300.022
300.029
300.036
300.044
300.051
300.059
300.068
300.076
300.085
300.094
300.103
300.112
300.122
300.132
300.142
300.152
300.163
300.173
300.184
300.195
300.207
300.218
300.23
300.241
300.253
300.265
300.277
300.29
300.302
300.314
300.327
300.339
300.352
300.365
300.377
300.39
300.403
300.416
300.428
300.441
300.454
300.467
300.48
300.492
300.505
300.517
300.53
300.542
300.555
300.567
300.58
300.592
300.604
300.616
300.628
300.64
300.651
300.663
300.674
300.686
300.697
300.708
300.719
300.73
300.741
300.752
300.762
300.772
300.783
300.793
300.803
300.813
300.822
300.832
300.842
300.851
300.86
300.869
300.003
300.009
300.016
300.022
300.029
300.036
300.044
300.051
300.059
300.067
300.076
300.084
300.093
300.103
300.112
300.122
300.131
300.141
300.152
300.162
300.173
300.184
300.195
300.206
300.217
300.229
300.241
300.253
300.265
300.277
300.289
300.301
300.313
300.326
300.338
300.351
300.364
300.376
300.389
300.402
300.415
300.427
300.44
300.453
300.465
300.478
300.491
300.503
300.516
300.528
300.541
300.553
300.566
300.578
300.59
300.602
300.614
300.626
300.638
300.649
300.661
300.672
300.684
300.695
300.706
300.717
300.728
300.739
300.749
300.76
300.77
300.78
300.79
300.8
300.81
300.82
300.829
300.839
300.848
300.857
300.866
303.025
303.154
303.232
303.304
303.367
303.419
303.454
303.494
303.534
303.571
303.602
303.636
303.671
303.705
303.739
303.772
303.803
303.831
303.86
303.89
303.919
303.949
303.978
304.007
304.037
304.065
304.093
304.121
304.149
304.176
304.203
304.23
304.256
304.282
304.309
304.334
304.36
304.385
304.41
304.435
304.46
304.484
304.509
304.537
304.563
304.588
304.611
304.636
304.663
304.688
304.713
304.735
304.759
304.784
304.81
304.836
304.862
304.887
304.913
304.937
304.958
304.981
305.004
305.029
305.054
305.078
305.103
305.128
305.152
305.176
305.2
305.224
305.247
305.271
305.295
305.318
305.341
305.365
305.387
305.412
305.44
305.466
305.489
305.512
305.534
305.555
305.579
305.606
305.631
305.653
305.673
305.697
305.723
305.746
305.771
305.798
305.823
305.844
305.87
305.894
305.915
305.939
305.96
305.984
306.01
306.037
306.061
306.08
306.104
306.124
306.147
306.172
306.198
306.224
306.247
306.265
306.288
306.312
306.337
306.358
306.375
306.395
306.417
306.439
306.459
306.474
306.492
306.511
306.529
306.547
306.564
306.579
306.594
306.607
306.619
306.63
306.639
306.647
306.653
306.657
306.66
306.66
306.659
306.655
306.649
306.641
306.63
306.616
306.598
306.576
306.548
306.517
306.485
306.448
306.405
306.355
306.3
306.206
306.12
306.011
305.87
302.924
303.038
303.126
303.201
303.266
303.322
303.368
303.412
303.454
303.493
303.529
303.565
303.601
303.636
303.671
303.705
303.737
303.767
303.798
303.828
303.858
303.888
303.918
303.948
303.977
304.007
304.035
304.064
304.092
304.119
304.147
304.174
304.201
304.227
304.254
304.28
304.306
304.332
304.357
304.383
304.408
304.433
304.459
304.485
304.511
304.537
304.561
304.587
304.613
304.638
304.663
304.687
304.711
304.736
304.762
304.787
304.813
304.839
304.864
304.888
304.911
304.934
304.958
304.983
305.008
305.033
305.057
305.082
305.107
305.131
305.155
305.179
305.203
305.227
305.251
305.275
305.298
305.322
305.345
305.37
305.397
305.422
305.446
305.47
305.492
305.514
305.538
305.564
305.589
305.612
305.633
305.657
305.683
305.707
305.732
305.758
305.783
305.806
305.831
305.855
305.877
305.901
305.924
305.948
305.973
305.999
306.024
306.045
306.068
306.089
306.112
306.137
306.163
306.188
306.212
306.232
306.254
306.278
306.303
306.324
306.342
306.363
306.385
306.406
306.427
306.443
306.461
306.48
306.499
306.516
306.533
306.549
306.564
306.577
306.59
306.6
306.61
306.618
306.624
306.628
306.631
306.632
306.631
306.627
306.621
306.613
306.602
306.587
306.57
306.548
306.52
306.489
306.456
306.418
306.373
306.322
306.263
306.172
306.081
305.967
305.811
302.842
302.941
303.027
303.103
303.169
303.227
303.279
303.326
303.371
303.412
303.452
303.49
303.527
303.564
303.599
303.634
303.667
303.699
303.731
303.762
303.793
303.824
303.855
303.885
303.915
303.944
303.974
304.002
304.031
304.059
304.087
304.115
304.142
304.169
304.196
304.222
304.249
304.275
304.301
304.327
304.353
304.378
304.404
304.431
304.457
304.483
304.508
304.533
304.559
304.585