/*--------------------------------*- C++ -*----------------------------------*\
| =========                 |                                                 |
| \\      /  F ield         | OpenFOAM: The Open Source CFD Toolbox           |
|  \\    /   O peration     | Version:  2106                                  |
|   \\  /    A nd           | Website:  www.openfoam.com                      |
|    \\/     M anipulation  |                                                 |
\*---------------------------------------------------------------------------*/
FoamFile
{
    version     2.0;
    format      ascii;
    arch        "LSB;label=32;scalar=64";
    class       volVectorField;
    location    "7.8";
    object      U;
}
// * * * * * * * * * * * * * * * * * * * * * * * * * * * * * * * * * * * * * //

dimensions      [0 1 -1 0 0 0 0];

internalField   nonuniform List<vector> 
12013
(
(0.100038 -1.071e-05 0)
(0.100196 -1.98164e-05 0)
(0.10045 -2.8277e-05 0)
(0.10078 -3.60935e-05 0)
(0.101178 -4.34502e-05 0)
(0.101638 -5.04499e-05 0)
(0.102155 -5.71587e-05 0)
(0.102722 -6.3629e-05 0)
(0.103337 -6.99004e-05 0)
(0.103995 -7.6004e-05 0)
(0.104693 -8.19646e-05 0)
(0.105428 -8.78018e-05 0)
(0.106198 -9.3532e-05 0)
(0.106999 -9.9168e-05 0)
(0.107831 -0.00010472 0)
(0.108689 -0.000110198 0)
(0.109573 -0.000115607 0)
(0.110481 -0.000120953 0)
(0.111411 -0.000126239 0)
(0.112362 -0.000131468 0)
(0.113331 -0.000136642 0)
(0.114317 -0.000141761 0)
(0.115319 -0.000146826 0)
(0.116335 -0.000151835 0)
(0.117365 -0.000156786 0)
(0.118407 -0.000161677 0)
(0.119459 -0.000166506 0)
(0.12052 -0.000171266 0)
(0.12159 -0.000175956 0)
(0.122666 -0.000180569 0)
(0.123749 -0.0001851 0)
(0.124836 -0.000189542 0)
(0.125927 -0.000193888 0)
(0.12702 -0.00019813 0)
(0.128115 -0.000202259 0)
(0.12921 -0.000206265 0)
(0.130305 -0.000210138 0)
(0.131397 -0.000213864 0)
(0.132487 -0.000217433 0)
(0.133573 -0.000220828 0)
(0.134653 -0.000224033 0)
(0.135727 -0.000227032 0)
(0.136794 -0.000229802 0)
(0.137852 -0.000232324 0)
(0.138901 -0.000234571 0)
(0.139938 -0.000236515 0)
(0.140963 -0.000238125 0)
(0.141975 -0.000239365 0)
(0.142971 -0.000240195 0)
(0.143951 -0.000240568 0)
(0.144913 -0.000240431 0)
(0.145855 -0.000239724 0)
(0.146775 -0.000238373 0)
(0.147671 -0.000236299 0)
(0.148542 -0.000233404 0)
(0.149385 -0.000229574 0)
(0.150197 -0.000224675 0)
(0.150975 -0.000218545 0)
(0.151717 -0.000210992 0)
(0.152417 -0.000201781 0)
(0.153072 -0.000190625 0)
(0.153678 -0.00017717 0)
(0.154227 -0.000160974 0)
(0.154713 -0.000141479 0)
(0.155129 -0.000117973 0)
(0.155463 -8.95345e-05 0)
(0.155703 -5.49524e-05 0)
(0.155835 -1.26094e-05 0)
(0.15584 3.9708e-05 0)
(0.155692 0.000105143 0)
(0.155359 0.000188194 0)
(0.154797 0.000295472 0)
(0.153948 0.00043702 0)
(0.152726 0.000628583 0)
(0.151009 0.000895722 0)
(0.148611 0.0012814 0)
(0.145248 0.00186054 0)
(0.140443 0.0027719 0)
(0.1334 0.00431561 0)
(0.123015 0.00737579 0)
(0.11109 0.0161175 0)
(0.100035 -3.27002e-05 0)
(0.100192 -6.07558e-05 0)
(0.100446 -8.67399e-05 0)
(0.100774 -0.000110729 0)
(0.101172 -0.000133307 0)
(0.101631 -0.000154787 0)
(0.102146 -0.000175373 0)
(0.102713 -0.000195225 0)
(0.103326 -0.000214466 0)
(0.103983 -0.00023319 0)
(0.10468 -0.000251475 0)
(0.105415 -0.00026938 0)
(0.106183 -0.000286955 0)
(0.106983 -0.000304241 0)
(0.107813 -0.00032127 0)
(0.108671 -0.000338067 0)
(0.109554 -0.000354653 0)
(0.11046 -0.000371044 0)
(0.111389 -0.000387252 0)
(0.112338 -0.000403285 0)
(0.113305 -0.000419147 0)
(0.11429 -0.000434841 0)
(0.115291 -0.000450365 0)
(0.116306 -0.000465718 0)
(0.117334 -0.000480893 0)
(0.118374 -0.000495883 0)
(0.119424 -0.000510678 0)
(0.120484 -0.000525267 0)
(0.121552 -0.000539637 0)
(0.122626 -0.00055377 0)
(0.123707 -0.000567651 0)
(0.124792 -0.000581258 0)
(0.125881 -0.00059457 0)
(0.126972 -0.000607562 0)
(0.128065 -0.000620207 0)
(0.129158 -0.000632474 0)
(0.13025 -0.000644332 0)
(0.131341 -0.000655742 0)
(0.132428 -0.000666665 0)
(0.133511 -0.000677056 0)
(0.134589 -0.000686866 0)
(0.135661 -0.00069604 0)
(0.136725 -0.000704516 0)
(0.137781 -0.000712228 0)
(0.138827 -0.000719098 0)
(0.139861 -0.000725041 0)
(0.140884 -0.00072996 0)
(0.141893 -0.000733746 0)
(0.142886 -0.000736275 0)
(0.143863 -0.000737406 0)
(0.144823 -0.000736976 0)
(0.145762 -0.0007348 0)
(0.146679 -0.00073066 0)
(0.147573 -0.000724305 0)
(0.148442 -0.000715443 0)
(0.149282 -0.000703726 0)
(0.150092 -0.000688745 0)
(0.150868 -0.000670012 0)
(0.151608 -0.000646939 0)
(0.152307 -0.000618815 0)
(0.152962 -0.000584772 0)
(0.153567 -0.00054374 0)
(0.154117 -0.000494384 0)
(0.154606 -0.000435028 0)
(0.155025 -0.00036353 0)
(0.155365 -0.000277133 0)
(0.155615 -0.000172224 0)
(0.15576 -4.40033e-05 0)
(0.155783 0.000114032 0)
(0.155662 0.000310972 0)
(0.155369 0.00055971 0)
(0.154867 0.000878951 0)
(0.154107 0.00129655 0)
(0.153023 0.00185513 0)
(0.151528 0.00262163 0)
(0.1495 0.00370378 0)
(0.146777 0.00527762 0)
(0.143135 0.00763353 0)
(0.1383 0.0112544 0)
(0.132286 0.0168545 0)
(0.127398 0.0248245 0)
(0.100032 -5.55788e-05 0)
(0.100187 -0.000104211 0)
(0.100438 -0.000148965 0)
(0.100765 -0.000190269 0)
(0.10116 -0.000229135 0)
(0.101617 -0.000266104 0)
(0.102131 -0.000301529 0)
(0.102695 -0.000335687 0)
(0.103307 -0.000368791 0)
(0.103962 -0.000401004 0)
(0.104656 -0.000432458 0)
(0.105388 -0.000463256 0)
(0.106154 -0.000493486 0)
(0.106952 -0.000523215 0)
(0.10778 -0.0005525 0)
(0.108635 -0.000581385 0)
(0.109515 -0.000609906 0)
(0.110419 -0.000638089 0)
(0.111345 -0.000665955 0)
(0.112291 -0.000693517 0)
(0.113256 -0.000720785 0)
(0.114237 -0.00074776 0)
(0.115235 -0.000774443 0)
(0.116246 -0.000800827 0)
(0.117271 -0.000826904 0)
(0.118308 -0.000852661 0)
(0.119355 -0.000878081 0)
(0.120411 -0.000903144 0)
(0.121475 -0.000927827 0)
(0.122546 -0.000952102 0)
(0.123622 -0.000975939 0)
(0.124704 -0.000999304 0)
(0.125788 -0.00102216 0)
(0.126876 -0.00104446 0)
(0.127964 -0.00106616 0)
(0.129052 -0.00108721 0)
(0.13014 -0.00110755 0)
(0.131226 -0.00112712 0)
(0.132308 -0.00114585 0)
(0.133387 -0.00116367 0)
(0.13446 -0.00118048 0)
(0.135527 -0.0011962 0)
(0.136586 -0.00121071 0)
(0.137636 -0.00122391 0)
(0.138677 -0.00123566 0)
(0.139706 -0.00124582 0)
(0.140723 -0.00125421 0)
(0.141727 -0.00126067 0)
(0.142715 -0.00126496 0)
(0.143686 -0.00126685 0)
(0.14464 -0.00126607 0)
(0.145574 -0.0012623 0)
(0.146486 -0.00125517 0)
(0.147374 -0.00124425 0)
(0.148238 -0.00122905 0)
(0.149073 -0.00120898 0)
(0.149878 -0.00118334 0)
(0.15065 -0.00115133 0)
(0.151386 -0.00111195 0)
(0.152083 -0.001064 0)
(0.152736 -0.00100605 0)
(0.15334 -0.000936304 0)
(0.153891 -0.000852566 0)
(0.154383 -0.000752067 0)
(0.154808 -0.000631311 0)
(0.155158 -0.000485814 0)
(0.155423 -0.000309762 0)
(0.155591 -9.55135e-05 0)
(0.155647 0.000167117 0)
(0.155573 0.000492051 0)
(0.155347 0.000898634 0)
(0.154943 0.00141414 0)
(0.154329 0.00207771 0)
(0.153466 0.00294651 0)
(0.15231 0.00410509 0)
(0.150816 0.00567932 0)
(0.148951 0.00785475 0)
(0.14672 0.0108955 0)
(0.144237 0.0151482 0)
(0.14193 0.0209147 0)
(0.141073 0.0276747 0)
(0.100029 -7.91467e-05 0)
(0.100181 -0.00015006 0)
(0.100429 -0.000214878 0)
(0.100753 -0.000274734 0)
(0.101145 -0.000331032 0)
(0.101598 -0.000384566 0)
(0.102109 -0.000435853 0)
(0.10267 -0.000485298 0)
(0.103278 -0.00053321 0)
(0.10393 -0.000579827 0)
(0.104621 -0.000625339 0)
(0.105349 -0.000669899 0)
(0.106112 -0.000713631 0)
(0.106906 -0.000756635 0)
(0.10773 -0.000798992 0)
(0.108581 -0.000840766 0)
(0.109457 -0.000882008 0)
(0.110357 -0.000922758 0)
(0.111278 -0.000963045 0)
(0.11222 -0.00100289 0)
(0.11318 -0.0010423 0)
(0.114157 -0.00108129 0)
(0.11515 -0.00111985 0)
(0.116157 -0.00115797 0)
(0.117176 -0.00119564 0)
(0.118207 -0.00123285 0)
(0.119249 -0.00126956 0)
(0.120299 -0.00130575 0)
(0.121358 -0.00134139 0)
(0.122423 -0.00137643 0)
(0.123494 -0.00141083 0)
(0.124569 -0.00144454 0)
(0.125647 -0.00147751 0)
(0.126728 -0.00150968 0)
(0.12781 -0.00154097 0)
(0.128892 -0.00157131 0)
(0.129973 -0.00160062 0)
(0.131051 -0.00162882 0)
(0.132127 -0.00165579 0)
(0.133198 -0.00168143 0)
(0.134263 -0.00170561 0)
(0.135322 -0.00172821 0)
(0.136374 -0.00174907 0)
(0.137417 -0.00176802 0)
(0.138449 -0.00178488 0)
(0.139471 -0.00179943 0)
(0.140479 -0.00181144 0)
(0.141475 -0.00182064 0)
(0.142455 -0.00182672 0)
(0.143418 -0.00182936 0)
(0.144363 -0.00182814 0)
(0.145289 -0.00182262 0)
(0.146193 -0.00181228 0)
(0.147074 -0.00179651 0)
(0.14793 -0.00177462 0)
(0.148758 -0.00174577 0)
(0.149557 -0.00170899 0)
(0.150323 -0.00166313 0)
(0.151054 -0.00160683 0)
(0.151746 -0.00153841 0)
(0.152397 -0.00145589 0)
(0.153001 -0.00135681 0)
(0.153554 -0.00123816 0)
(0.154051 -0.00109622 0)
(0.154486 -0.000926278 0)
(0.154852 -0.000722403 0)
(0.15514 -0.000476984 0)
(0.155341 -0.000180183 0)
(0.155444 0.000180819 0)
(0.155438 0.000623014 0)
(0.155307 0.00116933 0)
(0.155038 0.00185085 0)
(0.154616 0.00271006 0)
(0.154029 0.00380525 0)
(0.153272 0.00521622 0)
(0.152359 0.00705036 0)
(0.151338 0.00944611 0)
(0.150323 0.012564 0)
(0.149534 0.0165422 0)
(0.14936 0.0213438 0)
(0.150359 0.0263181 0)
(0.100026 -0.00010341 0)
(0.100175 -0.000198214 0)
(0.100419 -0.000284436 0)
(0.100738 -0.000364145 0)
(0.101125 -0.000439089 0)
(0.101575 -0.000510327 0)
(0.10208 -0.000578558 0)
(0.102637 -0.000644325 0)
(0.103241 -0.00070804 0)
(0.103888 -0.000770023 0)
(0.104575 -0.000830527 0)
(0.105298 -0.000889757 0)
(0.106056 -0.000947877 0)
(0.106845 -0.00100502 0)
(0.107663 -0.0010613 0)
(0.108509 -0.00111679 0)
(0.10938 -0.00117157 0)
(0.110274 -0.00122569 0)
(0.111189 -0.00127918 0)
(0.112125 -0.00133208 0)
(0.113079 -0.0013844 0)
(0.114049 -0.00143614 0)
(0.115035 -0.00148731 0)
(0.116035 -0.00153789 0)
(0.117048 -0.00158786 0)
(0.118072 -0.0016372 0)
(0.119106 -0.00168588 0)
(0.120149 -0.00173386 0)
(0.1212 -0.00178109 0)
(0.122257 -0.00182752 0)
(0.12332 -0.00187309 0)
(0.124387 -0.00191774 0)
(0.125457 -0.00196139 0)
(0.126529 -0.00200396 0)
(0.127602 -0.00204536 0)
(0.128675 -0.00208549 0)
(0.129746 -0.00212424 0)
(0.130815 -0.00216149 0)
(0.131881 -0.00219712 0)
(0.132942 -0.00223096 0)
(0.133998 -0.00226287 0)
(0.135047 -0.00229266 0)
(0.136088 -0.00232013 0)
(0.137121 -0.00234507 0)
(0.138143 -0.00236722 0)
(0.139154 -0.00238631 0)
(0.140152 -0.00240203 0)
(0.141136 -0.00241403 0)
(0.142105 -0.00242192 0)
(0.143058 -0.00242525 0)
(0.143993 -0.00242349 0)
(0.144908 -0.00241608 0)
(0.145802 -0.00240233 0)
(0.146673 -0.00238147 0)
(0.147519 -0.00235258 0)
(0.148339 -0.00231462 0)
(0.149129 -0.00226635 0)
(0.149888 -0.0022063 0)
(0.150613 -0.00213274 0)
(0.151302 -0.0020436 0)
(0.15195 -0.00193637 0)
(0.152555 -0.00180805 0)
(0.153112 -0.00165495 0)
(0.153618 -0.00147254 0)
(0.154067 -0.00125523 0)
(0.154454 -0.000996025 0)
(0.154774 -0.000686137 0)
(0.15502 -0.000314443 0)
(0.155186 0.000133178 0)
(0.155264 0.000674644 0)
(0.155251 0.00133329 0)
(0.155142 0.00213927 0)
(0.154937 0.00313139 0)
(0.154646 0.00435909 0)
(0.15429 0.005884 0)
(0.153913 0.00777948 0)
(0.153595 0.0101249 0)
(0.153464 0.0129871 0)
(0.153713 0.0163745 0)
(0.154594 0.0201401 0)
(0.15633 0.0238104 0)
(0.100023 -0.000128377 0)
(0.100169 -0.000248591 0)
(0.100407 -0.000357586 0)
(0.100721 -0.00045849 0)
(0.101103 -0.000553352 0)
(0.101547 -0.000643493 0)
(0.102047 -0.000729807 0)
(0.102598 -0.000812985 0)
(0.103196 -0.000893549 0)
(0.103837 -0.000971907 0)
(0.104518 -0.00104838 0)
(0.105235 -0.00112323 0)
(0.105986 -0.00119666 0)
(0.106769 -0.00126884 0)
(0.10758 -0.00133992 0)
(0.108419 -0.00140999 0)
(0.109282 -0.00147915 0)
(0.110169 -0.00154746 0)
(0.111077 -0.00161498 0)
(0.112005 -0.00168172 0)
(0.112951 -0.00174772 0)
(0.113913 -0.00181298 0)
(0.114891 -0.0018775 0)
(0.115882 -0.00194127 0)
(0.116886 -0.00200425 0)
(0.117901 -0.00206643 0)
(0.118926 -0.00212775 0)
(0.119959 -0.00218818 0)
(0.121 -0.00224764 0)
(0.122048 -0.00230609 0)
(0.1231 -0.00236343 0)
(0.124157 -0.00241959 0)
(0.125216 -0.00247447 0)
(0.126277 -0.00252797 0)
(0.127339 -0.00257998 0)
(0.1284 -0.00263038 0)
(0.12946 -0.00267901 0)
(0.130518 -0.00272574 0)
(0.131571 -0.0027704 0)
(0.13262 -0.0028128 0)
(0.133664 -0.00285275 0)
(0.1347 -0.00289001 0)
(0.135729 -0.00292434 0)
(0.136748 -0.00295546 0)
(0.137757 -0.00298307 0)
(0.138755 -0.00300683 0)
(0.13974 -0.00302634 0)
(0.140711 -0.00304118 0)
(0.141667 -0.00305087 0)
(0.142607 -0.00305483 0)
(0.143529 -0.00305246 0)
(0.144431 -0.00304303 0)
(0.145313 -0.00302573 0)
(0.146173 -0.0029996 0)
(0.147008 -0.00296355 0)
(0.147817 -0.00291633 0)
(0.148598 -0.00285644 0)
(0.14935 -0.00278215 0)
(0.150069 -0.00269142 0)
(0.150753 -0.00258183 0)
(0.1514 -0.00245049 0)
(0.152007 -0.00229395 0)
(0.152571 -0.00210803 0)
(0.153089 -0.00188771 0)
(0.153557 -0.00162685 0)
(0.153973 -0.00131793 0)
(0.154332 -0.000951747 0)
(0.154633 -0.000516924 0)
(0.154872 5.29171e-07 0)
(0.155049 0.00061752 0)
(0.155165 0.00135495 0)
(0.155226 0.00223845 0)
(0.155243 0.00329871 0)
(0.155236 0.00457151 0)
(0.155239 0.00609655 0)
(0.155305 0.00791389 0)
(0.15551 0.0100559 0)
(0.15596 0.0125314 0)
(0.156789 0.0152964 0)
(0.158132 0.0182084 0)
(0.160067 0.0209748 0)
(0.10002 -0.000154061 0)
(0.100163 -0.000301124 0)
(0.100395 -0.000434276 0)
(0.100703 -0.000557738 0)
(0.101078 -0.000673833 0)
(0.101516 -0.000784127 0)
(0.102009 -0.000889716 0)
(0.102553 -0.000991443 0)
(0.103144 -0.00108995 0)
(0.103777 -0.00118573 0)
(0.104451 -0.00127919 0)
(0.10516 -0.00137065 0)
(0.105903 -0.00146035 0)
(0.106678 -0.00154851 0)
(0.107481 -0.00163529 0)
(0.108311 -0.00172084 0)
(0.109166 -0.00180524 0)
(0.110044 -0.0018886 0)
(0.110942 -0.00197096 0)
(0.111861 -0.00205236 0)
(0.112797 -0.00213284 0)
(0.113749 -0.00221239 0)
(0.114716 -0.00229102 0)
(0.115697 -0.00236871 0)
(0.11669 -0.00244543 0)
(0.117694 -0.00252114 0)
(0.118708 -0.00259578 0)
(0.11973 -0.00266931 0)
(0.120759 -0.00274165 0)
(0.121794 -0.00281271 0)
(0.122834 -0.00288241 0)
(0.123878 -0.00295065 0)
(0.124924 -0.0030173 0)
(0.125972 -0.00308225 0)
(0.127021 -0.00314536 0)
(0.128068 -0.00320647 0)
(0.129114 -0.00326541 0)
(0.130158 -0.00332201 0)
(0.131197 -0.00337607 0)
(0.132231 -0.00342735 0)
(0.13326 -0.00347562 0)
(0.134281 -0.00352061 0)
(0.135295 -0.00356201 0)
(0.136299 -0.0035995 0)
(0.137293 -0.00363271 0)
(0.138275 -0.00366123 0)
(0.139245 -0.00368461 0)
(0.140201 -0.00370232 0)
(0.141142 -0.0037138 0)
(0.142066 -0.00371838 0)
(0.142973 -0.00371535 0)
(0.143862 -0.00370385 0)
(0.144729 -0.00368293 0)
(0.145576 -0.0036515 0)
(0.146398 -0.0036083 0)
(0.147196 -0.00355189 0)
(0.147968 -0.00348058 0)
(0.148711 -0.00339242 0)
(0.149424 -0.00328513 0)
(0.150105 -0.00315605 0)
(0.150752 -0.00300203 0)
(0.151363 -0.00281935 0)
(0.151937 -0.00260361 0)
(0.15247 -0.00234958 0)
(0.152962 -0.00205101 0)
(0.153411 -0.00170047 0)
(0.153817 -0.00128905 0)
(0.154179 -0.000806157 0)
(0.154499 -0.000239228 0)
(0.15478 0.000426367 0)
(0.155028 0.00120712 0)
(0.155256 0.0021222 0)
(0.155478 0.00319265 0)
(0.15572 0.00444031 0)
(0.156018 0.00588559 0)
(0.156417 0.00754354 0)
(0.156981 0.00941737 0)
(0.157781 0.0114883 0)
(0.158897 0.0137014 0)
(0.160395 0.0159489 0)
(0.162292 0.0180609 0)
(0.100017 -0.000180487 0)
(0.100156 -0.000355769 0)
(0.100383 -0.000514461 0)
(0.100683 -0.00066185 0)
(0.101052 -0.000800523 0)
(0.101481 -0.000932259 0)
(0.101967 -0.00105836 0)
(0.102503 -0.00117981 0)
(0.103085 -0.0012974 0)
(0.10371 -0.00141171 0)
(0.104374 -0.00152321 0)
(0.105075 -0.00163229 0)
(0.105808 -0.00173925 0)
(0.106573 -0.00184435 0)
(0.107367 -0.00194778 0)
(0.108186 -0.00204971 0)
(0.109031 -0.00215026 0)
(0.109898 -0.00224952 0)
(0.110785 -0.00234757 0)
(0.111692 -0.00244446 0)
(0.112617 -0.00254022 0)
(0.113557 -0.00263485 0)
(0.114513 -0.00272835 0)
(0.115481 -0.0028207 0)
(0.116461 -0.00291187 0)
(0.117452 -0.00300181 0)
(0.118452 -0.00309046 0)
(0.119461 -0.00317774 0)
(0.120476 -0.00326357 0)
(0.121497 -0.00334786 0)
(0.122522 -0.0034305 0)
(0.123551 -0.00351136 0)
(0.124582 -0.0035903 0)
(0.125615 -0.00366719 0)
(0.126647 -0.00374185 0)
(0.127679 -0.00381411 0)
(0.128709 -0.00388376 0)
(0.129736 -0.0039506 0)
(0.130758 -0.00401437 0)
(0.131776 -0.00407484 0)
(0.132788 -0.00413169 0)
(0.133792 -0.00418463 0)
(0.134788 -0.0042333 0)
(0.135774 -0.00427732 0)
(0.136751 -0.00431625 0)
(0.137715 -0.00434964 0)
(0.138668 -0.00437694 0)
(0.139606 -0.00439757 0)
(0.14053 -0.00441088 0)
(0.141438 -0.00441611 0)
(0.142328 -0.00441244 0)
(0.143201 -0.00439891 0)
(0.144053 -0.00437447 0)
(0.144885 -0.00433789 0)
(0.145695 -0.00428779 0)
(0.146481 -0.00422257 0)
(0.147242 -0.00414043 0)
(0.147977 -0.00403926 0)
(0.148685 -0.00391665 0)
(0.149363 -0.00376979 0)
(0.150012 -0.00359544 0)
(0.150629 -0.00338984 0)
(0.151214 -0.00314861 0)
(0.151767 -0.00286666 0)
(0.152286 -0.00253806 0)
(0.152772 -0.00215597 0)
(0.153227 -0.00171249 0)
(0.153654 -0.00119857 0)
(0.154055 -0.000603949 0)
(0.154438 8.28493e-05 0)
(0.154812 0.000873472 0)
(0.15519 0.00178016 0)
(0.15559 0.00281498 0)
(0.156035 0.00398826 0)
(0.156555 0.0053065 0)
(0.157189 0.00676934 0)
(0.157977 0.00836552 0)
(0.158967 0.0100678 0)
(0.160199 0.0118276 0)
(0.161701 0.0135713 0)
(0.163469 0.0152024 0)
(0.100014 -0.000207691 0)
(0.10015 -0.000412497 0)
(0.10037 -0.000598107 0)
(0.100664 -0.000770787 0)
(0.101024 -0.000933394 0)
(0.101445 -0.00108789 0)
(0.101921 -0.00123576 0)
(0.102448 -0.00137816 0)
(0.10302 -0.001516 0)
(0.103635 -0.00164995 0)
(0.104289 -0.00178059 0)
(0.104979 -0.00190835 0)
(0.105702 -0.0020336 0)
(0.106455 -0.00215662 0)
(0.107237 -0.00227766 0)
(0.108045 -0.00239691 0)
(0.108877 -0.0025145 0)
(0.109732 -0.00263056 0)
(0.110607 -0.00274516 0)
(0.111501 -0.00285837 0)
(0.112412 -0.00297022 0)
(0.113339 -0.00308072 0)
(0.11428 -0.00318985 0)
(0.115234 -0.00329761 0)
(0.116199 -0.00340395 0)
(0.117175 -0.00350881 0)
(0.11816 -0.00361212 0)
(0.119152 -0.0037138 0)
(0.120151 -0.00381374 0)
(0.121156 -0.00391184 0)
(0.122165 -0.00400797 0)
(0.123176 -0.00410198 0)
(0.12419 -0.00419372 0)
(0.125205 -0.00428301 0)
(0.12622 -0.00436966 0)
(0.127234 -0.00445346 0)
(0.128245 -0.0045342 0)
(0.129253 -0.0046116 0)
(0.130257 -0.00468541 0)
(0.131255 -0.00475532 0)
(0.132247 -0.004821 0)
(0.133232 -0.0048821 0)
(0.134209 -0.00493821 0)
(0.135176 -0.0049889 0)
(0.136133 -0.00503369 0)
(0.137078 -0.00507204 0)
(0.138011 -0.00510336 0)
(0.13893 -0.005127 0)
(0.139835 -0.00514221 0)
(0.140724 -0.00514819 0)
(0.141597 -0.00514402 0)
(0.142452 -0.00512866 0)
(0.143288 -0.00510097 0)
(0.144105 -0.00505963 0)
(0.1449 -0.00500317 0)
(0.145674 -0.00492992 0)
(0.146425 -0.00483799 0)
(0.147152 -0.00472522 0)
(0.147855 -0.00458917 0)
(0.148532 -0.00442705 0)
(0.149184 -0.00423568 0)
(0.149809 -0.00401145 0)
(0.150408 -0.00375027 0)
(0.150981 -0.0034475 0)
(0.151529 -0.0030979 0)
(0.152054 -0.00269566 0)
(0.152559 -0.00223431 0)
(0.153048 -0.00170682 0)
(0.153527 -0.0011057 0)
(0.154003 -0.000423095 0)
(0.154488 0.000349008 0)
(0.154993 0.00121607 0)
(0.155535 0.00218317 0)
(0.156133 0.00325265 0)
(0.156811 0.00442251 0)
(0.157595 0.00568471 0)
(0.158511 0.00702309 0)
(0.159586 0.0084115 0)
(0.160838 0.00981251 0)
(0.162277 0.011178 0)
(0.163892 0.0124536 0)
(0.100011 -0.000235716 0)
(0.100144 -0.000471293 0)
(0.100358 -0.000685186 0)
(0.100643 -0.00088451 0)
(0.100995 -0.00107241 0)
(0.101406 -0.00125099 0)
(0.101873 -0.00142192 0)
(0.102389 -0.00158651 0)
(0.10295 -0.00174579 0)
(0.103554 -0.00190055 0)
(0.104196 -0.00205143 0)
(0.104874 -0.00219895 0)
(0.105585 -0.00234352 0)
(0.106325 -0.00248549 0)
(0.107094 -0.00262512 0)
(0.107889 -0.00276263 0)
(0.108707 -0.00289819 0)
(0.109547 -0.00303194 0)
(0.110408 -0.00316396 0)
(0.111286 -0.00329433 0)
(0.112182 -0.00342308 0)
(0.113093 -0.00355023 0)
(0.114018 -0.00367577 0)
(0.114956 -0.00379967 0)
(0.115905 -0.00392188 0)
(0.116863 -0.00404234 0)
(0.117831 -0.00416097 0)
(0.118805 -0.00427767 0)
(0.119786 -0.00439232 0)
(0.120772 -0.00450479 0)
(0.121762 -0.00461494 0)
(0.122755 -0.00472261 0)
(0.123749 -0.00482761 0)
(0.124744 -0.00492974 0)
(0.125739 -0.00502879 0)
(0.126732 -0.00512452 0)
(0.127723 -0.00521667 0)
(0.12871 -0.00530496 0)
(0.129693 -0.00538908 0)
(0.13067 -0.00546868 0)
(0.131641 -0.00554341 0)
(0.132604 -0.00561285 0)
(0.133559 -0.00567657 0)
(0.134505 -0.00573409 0)
(0.13544 -0.00578486 0)
(0.136364 -0.0058283 0)
(0.137276 -0.00586377 0)
(0.138174 -0.00589055 0)
(0.139059 -0.00590785 0)
(0.139928 -0.00591479 0)
(0.140782 -0.0059104 0)
(0.141619 -0.00589358 0)
(0.142438 -0.00586313 0)
(0.143238 -0.00581771 0)
(0.14402 -0.00575578 0)
(0.144781 -0.00567568 0)
(0.145522 -0.0055755 0)
(0.146241 -0.00545314 0)
(0.14694 -0.00530622 0)
(0.147616 -0.0051321 0)
(0.148271 -0.00492785 0)
(0.148905 -0.0046902 0)
(0.149518 -0.00441555 0)
(0.150113 -0.00409996 0)
(0.15069 -0.00373914 0)
(0.151253 -0.00332854 0)
(0.151805 -0.00286336 0)
(0.152352 -0.00233872 0)
(0.152899 -0.00174985 0)
(0.153455 -0.00109226 0)
(0.154029 -0.000362054 0)
(0.154634 0.000443978 0)
(0.155282 0.00132433 0)
(0.155988 0.00227658 0)
(0.156767 0.00329464 0)
(0.157637 0.0043679 0)
(0.158614 0.00548041 0)
(0.159709 0.00661064 0)
(0.160932 0.0077317 0)
(0.162282 0.00881288 0)
(0.163747 0.00982304 0)
(0.100007 -0.000264599 0)
(0.100138 -0.000532146 0)
(0.100345 -0.00077567 0)
(0.100623 -0.00100298 0)
(0.100965 -0.00121751 0)
(0.101366 -0.0014215 0)
(0.101822 -0.00161679 0)
(0.102326 -0.00180482 0)
(0.102876 -0.00198676 0)
(0.103467 -0.00216349 0)
(0.104096 -0.00233576 0)
(0.104761 -0.00250413 0)
(0.105457 -0.00266908 0)
(0.106184 -0.00283101 0)
(0.106938 -0.00299022 0)
(0.107717 -0.00314695 0)
(0.10852 -0.00330141 0)
(0.109344 -0.00345374 0)
(0.110188 -0.00360405 0)
(0.11105 -0.00375242 0)
(0.111929 -0.00389889 0)
(0.112822 -0.00404347 0)
(0.113729 -0.00418616 0)
(0.114649 -0.00432692 0)
(0.115579 -0.00446571 0)
(0.116518 -0.00460243 0)
(0.117466 -0.00473701 0)
(0.118421 -0.00486933 0)
(0.119382 -0.00499926 0)
(0.120347 -0.00512665 0)
(0.121316 -0.00525134 0)
(0.122287 -0.00537313 0)
(0.12326 -0.00549184 0)
(0.124233 -0.00560722 0)
(0.125206 -0.00571905 0)
(0.126177 -0.00582705 0)
(0.127145 -0.00593093 0)
(0.128109 -0.00603039 0)
(0.129069 -0.00612506 0)
(0.130023 -0.00621459 0)
(0.13097 -0.00629857 0)
(0.13191 -0.00637655 0)
(0.132842 -0.00644805 0)
(0.133764 -0.00651254 0)
(0.134676 -0.00656946 0)
(0.135577 -0.00661816 0)
(0.136466 -0.00665797 0)
(0.137342 -0.00668812 0)
(0.138205 -0.00670778 0)
(0.139053 -0.00671603 0)
(0.139887 -0.00671187 0)
(0.140704 -0.00669419 0)
(0.141505 -0.00666176 0)
(0.14229 -0.00661323 0)
(0.143056 -0.00654711 0)
(0.143805 -0.00646176 0)
(0.144535 -0.00635537 0)
(0.145248 -0.00622596 0)
(0.145942 -0.00607135 0)
(0.146618 -0.00588918 0)
(0.147277 -0.00567686 0)
(0.147919 -0.00543163 0)
(0.148547 -0.00515054 0)
(0.149161 -0.00483049 0)
(0.149765 -0.00446827 0)
(0.150362 -0.00406066 0)
(0.150956 -0.0036045 0)
(0.151552 -0.00309692 0)
(0.152155 -0.00253547 0)
(0.152774 -0.0019184 0)
(0.153417 -0.00124488 0)
(0.154092 -0.000515206 0)
(0.154812 0.000269452 0)
(0.155585 0.00110286 0)
(0.156422 0.00197675 0)
(0.157332 0.00288083 0)
(0.158324 0.00380168 0)
(0.159403 0.00472296 0)
(0.16057 0.00562607 0)
(0.161823 0.00649153 0)
(0.163152 0.00730128 0)
(0.100003 -0.000294373 0)
(0.100131 -0.000595048 0)
(0.100333 -0.000869525 0)
(0.100602 -0.00112613 0)
(0.100934 -0.00136863 0)
(0.101325 -0.00159936 0)
(0.101768 -0.00182028 0)
(0.102261 -0.00203302 0)
(0.102797 -0.00223882 0)
(0.103375 -0.00243871 0)
(0.103989 -0.00263349 0)
(0.104639 -0.00282381 0)
(0.10532 -0.00301022 0)
(0.106031 -0.00319313 0)
(0.106769 -0.00337291 0)
(0.107531 -0.00354983 0)
(0.108317 -0.00372411 0)
(0.109123 -0.00389592 0)
(0.109949 -0.00406538 0)
(0.110793 -0.00423258 0)
(0.111652 -0.00439756 0)
(0.112526 -0.00456034 0)
(0.113414 -0.00472092 0)
(0.114312 -0.00487925 0)
(0.115222 -0.00503528 0)
(0.11614 -0.00518891 0)
(0.117066 -0.00534005 0)
(0.117999 -0.00548857 0)
(0.118938 -0.00563432 0)
(0.11988 -0.00577713 0)
(0.120826 -0.00591683 0)
(0.121774 -0.0060532 0)
(0.122724 -0.00618602 0)
(0.123673 -0.00631504 0)
(0.124621 -0.00643999 0)
(0.125567 -0.00656057 0)
(0.126511 -0.00667648 0)
(0.12745 -0.00678735 0)
(0.128385 -0.00689283 0)
(0.129313 -0.00699249 0)
(0.130236 -0.00708591 0)
(0.13115 -0.00717261 0)
(0.132057 -0.00725208 0)
(0.132954 -0.00732374 0)
(0.133841 -0.007387 0)
(0.134718 -0.0074412 0)
(0.135583 -0.00748562 0)
(0.136436 -0.00751946 0)
(0.137275 -0.0075419 0)
(0.138102 -0.00755199 0)
(0.138914 -0.00754872 0)
(0.139712 -0.00753101 0)
(0.140494 -0.00749764 0)
(0.141262 -0.00744732 0)
(0.142013 -0.00737865 0)
(0.142749 -0.00729008 0)
(0.143469 -0.00717996 0)
(0.144174 -0.00704654 0)
(0.144864 -0.00688792 0)
(0.145539 -0.00670208 0)
(0.146201 -0.00648692 0)
(0.146851 -0.00624026 0)
(0.147491 -0.00595987 0)
(0.148123 -0.00564353 0)
(0.14875 -0.0052891 0)
(0.149375 -0.00489462 0)
(0.150003 -0.00445839 0)
(0.150637 -0.00397917 0)
(0.151283 -0.00345631 0)
(0.151948 -0.00288996 0)
(0.152637 -0.00228127 0)
(0.153358 -0.00163254 0)
(0.154118 -0.00094726 0)
(0.154924 -0.000229686 0)
(0.155784 0.000513295 0)
(0.156701 0.00127107 0)
(0.157679 0.00203239 0)
(0.15872 0.00278551 0)
(0.159821 0.00351794 0)
(0.16098 0.00421747 0)
(0.162187 0.00487357 0)
(0.0999991 -0.000325059 0)
(0.100125 -0.00065998 0)
(0.10032 -0.000966697 0)
(0.10058 -0.0012539 0)
(0.100902 -0.00152566 0)
(0.101282 -0.00178442 0)
(0.101713 -0.00203227 0)
(0.102192 -0.00227094 0)
(0.102714 -0.00250183 0)
(0.103277 -0.00272604 0)
(0.103876 -0.00294447 0)
(0.10451 -0.00315784 0)
(0.105174 -0.00336674 0)
(0.105868 -0.00357167 0)
(0.106587 -0.003773 0)
(0.107332 -0.00397105 0)
(0.108098 -0.00416607 0)
(0.108885 -0.00435824 0)
(0.109691 -0.0045477 0)
(0.110514 -0.00473454 0)
(0.111353 -0.00491881 0)
(0.112206 -0.00510055 0)
(0.113071 -0.00527972 0)
(0.113948 -0.0054563 0)
(0.114835 -0.00563022 0)
(0.11573 -0.00580137 0)
(0.116633 -0.00596964 0)
(0.117541 -0.0061349 0)
(0.118455 -0.00629698 0)
(0.119373 -0.00645569 0)
(0.120294 -0.00661084 0)
(0.121217 -0.0067622 0)
(0.12214 -0.0069095 0)
(0.123064 -0.0070525 0)
(0.123986 -0.00719088 0)
(0.124905 -0.00732434 0)
(0.125822 -0.00745252 0)
(0.126735 -0.00757506 0)
(0.127642 -0.00769155 0)
(0.128544 -0.00780156 0)
(0.129439 -0.00790463 0)
(0.130327 -0.00800025 0)
(0.131207 -0.00808788 0)
(0.132078 -0.00816695 0)
(0.132939 -0.00823682 0)
(0.133789 -0.00829681 0)
(0.134629 -0.00834621 0)
(0.135457 -0.00838421 0)
(0.136273 -0.00840999 0)
(0.137076 -0.00842262 0)
(0.137867 -0.00842112 0)
(0.138644 -0.00840445 0)
(0.139407 -0.00837148 0)
(0.140157 -0.00832101 0)
(0.140893 -0.00825175 0)
(0.141615 -0.00816235 0)
(0.142325 -0.00805137 0)
(0.143021 -0.00791733 0)
(0.143706 -0.00775866 0)
(0.144379 -0.0075738 0)
(0.145043 -0.00736114 0)
(0.145699 -0.00711911 0)
(0.146348 -0.00684621 0)
(0.146993 -0.00654107 0)
(0.147638 -0.00620248 0)
(0.148284 -0.00582956 0)
(0.148935 -0.00542177 0)
(0.149597 -0.00497908 0)
(0.150271 -0.00450207 0)
(0.150965 -0.00399205 0)
(0.151681 -0.00345121 0)
(0.152425 -0.00288268 0)
(0.153202 -0.00229058 0)
(0.154017 -0.00168004 0)
(0.154872 -0.00105695 0)
(0.155771 -0.00042717 0)
(0.156715 0.000201662 0)
(0.157704 0.00082053 0)
(0.158735 0.00141948 0)
(0.159804 0.00199043 0)
(0.160905 0.00252727 0)
(0.0999947 -0.000356663 0)
(0.100118 -0.000726911 0)
(0.100308 -0.00106711 0)
(0.100559 -0.00138617 0)
(0.10087 -0.00168845 0)
(0.101238 -0.00197652 0)
(0.101656 -0.00225253 0)
(0.10212 -0.00251837 0)
(0.102628 -0.00277553 0)
(0.103174 -0.00302521 0)
(0.103757 -0.0032684 0)
(0.104373 -0.0035059 0)
(0.105019 -0.00373835 0)
(0.105694 -0.00396628 0)
(0.106394 -0.00419014 0)
(0.107118 -0.00441025 0)
(0.107864 -0.0046269 0)
(0.10863 -0.00484028 0)
(0.109415 -0.00505055 0)
(0.110216 -0.00525782 0)
(0.111032 -0.00546214 0)
(0.111861 -0.00566354 0)
(0.112703 -0.00586199 0)
(0.113555 -0.00605746 0)
(0.114417 -0.00624987 0)
(0.115287 -0.00643911 0)
(0.116164 -0.00662506 0)
(0.117047 -0.00680756 0)
(0.117935 -0.00698644 0)
(0.118826 -0.00716148 0)
(0.11972 -0.00733248 0)
(0.120615 -0.00749918 0)
(0.121511 -0.00766132 0)
(0.122406 -0.0078186 0)
(0.1233 -0.0079707 0)
(0.124191 -0.00811728 0)
(0.125079 -0.00825798 0)
(0.125963 -0.0083924 0)
(0.126842 -0.00852012 0)
(0.127715 -0.00864068 0)
(0.128582 -0.00875361 0)
(0.129441 -0.00885837 0)
(0.130293 -0.00895442 0)
(0.131135 -0.00904117 0)
(0.131969 -0.00911797 0)
(0.132792 -0.00918417 0)
(0.133605 -0.00923903 0)
(0.134407 -0.00928179 0)
(0.135198 -0.00931163 0)
(0.135978 -0.0093277 0)
(0.136745 -0.00932906 0)
(0.137501 -0.00931476 0)
(0.138245 -0.00928378 0)
(0.138976 -0.00923505 0)
(0.139696 -0.00916746 0)
(0.140404 -0.00907988 0)
(0.141102 -0.00897113 0)
(0.141789 -0.00884004 0)
(0.142467 -0.00868543 0)
(0.143137 -0.00850616 0)
(0.1438 -0.00830114 0)
(0.144458 -0.00806939 0)
(0.145112 -0.00781006 0)
(0.145766 -0.0075225 0)
(0.146421 -0.0072063 0)
(0.14708 -0.00686138 0)
(0.147746 -0.00648805 0)
(0.148423 -0.00608707 0)
(0.149112 -0.00565974 0)
(0.149819 -0.00520797 0)
(0.150546 -0.00473432 0)
(0.151297 -0.00424201 0)
(0.152073 -0.00373495 0)
(0.152877 -0.0032177 0)
(0.153712 -0.00269538 0)
(0.154577 -0.00217352 0)
(0.155474 -0.00165775 0)
(0.156401 -0.00115353 0)
(0.157358 -0.000665178 0)
(0.15834 -0.000197747 0)
(0.159342 0.00024464 0)
(0.09999 -0.000389175 0)
(0.100111 -0.000795785 0)
(0.100295 -0.00117065 0)
(0.100537 -0.00152278 0)
(0.100837 -0.00185681 0)
(0.101192 -0.0021754 0)
(0.101596 -0.0024808 0)
(0.102046 -0.00277498 0)
(0.102537 -0.00305956 0)
(0.103067 -0.00333584 0)
(0.103631 -0.00360488 0)
(0.104229 -0.00386754 0)
(0.104855 -0.00412454 0)
(0.10551 -0.00437646 0)
(0.106189 -0.00462376 0)
(0.106892 -0.00486683 0)
(0.107616 -0.00510596 0)
(0.108359 -0.00534138 0)
(0.10912 -0.00557325 0)
(0.109896 -0.00580169 0)
(0.110688 -0.00602677 0)
(0.111492 -0.0062485 0)
(0.112308 -0.00646686 0)
(0.113134 -0.00668182 0)
(0.11397 -0.00689328 0)
(0.114813 -0.00710114 0)
(0.115662 -0.00730525 0)
(0.116517 -0.00750544 0)
(0.117376 -0.00770153 0)
(0.118239 -0.0078933 0)
(0.119104 -0.0080805 0)
(0.119969 -0.00826287 0)
(0.120835 -0.00844013 0)
(0.121701 -0.00861196 0)
(0.122564 -0.00877802 0)