/*--------------------------------*- C++ -*----------------------------------*\
| =========                 |                                                 |
| \\      /  F ield         | OpenFOAM: The Open Source CFD Toolbox           |
|  \\    /   O peration     | Version:  2106                                  |
|   \\  /    A nd           | Website:  www.openfoam.com                      |
|    \\/     M anipulation  |                                                 |
\*---------------------------------------------------------------------------*/
FoamFile
{
    version     2.0;
    format      ascii;
    arch        "LSB;label=32;scalar=64";
    class       surfaceScalarField;
    location    "5";
    object      phi;
}
// * * * * * * * * * * * * * * * * * * * * * * * * * * * * * * * * * * * * * //

dimensions      [1 0 -1 0 0 0 0];

oriented        oriented;

internalField   nonuniform List<scalar> 
23692
(
9.31729e-05
-9.34295e-08
9.33419e-05
-1.68974e-07
9.35781e-05
-2.36121e-07
9.38733e-05
-2.9514e-07
9.42213e-05
-3.47936e-07
9.46171e-05
-3.95671e-07
9.50563e-05
-4.39123e-07
9.55354e-05
-4.78905e-07
9.60511e-05
-5.15496e-07
9.66005e-05
-5.49278e-07
9.71813e-05
-5.80552e-07
9.77911e-05
-6.09577e-07
9.84278e-05
-6.36559e-07
9.90898e-05
-6.61674e-07
9.97751e-05
-6.85068e-07
0.000100482
-7.06862e-07
0.00010121
-7.27162e-07
0.000101956
-7.46057e-07
0.00010272
-7.63621e-07
0.0001035
-7.79919e-07
0.000104295
-7.95006e-07
0.000105105
-8.08928e-07
0.000105927
-8.21724e-07
0.00010676
-8.33429e-07
0.000107605
-8.44072e-07
0.000108459
-8.53676e-07
0.000109321
-8.62261e-07
0.000110192
-8.69844e-07
0.000111068
-8.7644e-07
0.000111951
-8.8206e-07
0.000112838
-8.86711e-07
0.000113728
-8.904e-07
0.000114622
-8.93134e-07
0.000115517
-8.94908e-07
0.000116413
-8.95726e-07
0.000117309
-8.95582e-07
0.000118204
-8.94473e-07
0.000119096
-8.92389e-07
0.000119986
-8.89321e-07
0.000120872
-8.85253e-07
0.000121752
-8.80171e-07
0.000122626
-8.74051e-07
0.000123494
-8.66868e-07
0.000124352
-8.58594e-07
0.000125202
-8.49193e-07
0.000126041
-8.38621e-07
0.000126868
-8.26831e-07
0.000127682
-8.13763e-07
0.000128481
-7.9935e-07
0.000129265
-7.83512e-07
0.000130031
-7.66154e-07
0.000130779
-7.47167e-07
0.000131505
-7.2642e-07
0.000132209
-7.03758e-07
0.000132888
-6.78999e-07
0.00013354
-6.51926e-07
0.000134163
-6.22279e-07
0.000134753
-5.89744e-07
0.000135307
-5.53945e-07
0.000135821
-5.1442e-07
0.000136292
-4.70606e-07
0.000136714
-4.21806e-07
0.000137081
-3.6715e-07
0.000137387
-3.05543e-07
0.000137623
-2.35591e-07
0.000137778
-1.55496e-07
0.000137841
-6.29142e-08
0.000137796
4.52715e-08
0.000137623
1.73362e-07
0.000137295
3.2732e-07
0.00013678
5.15601e-07
0.000136029
7.50494e-07
0.000134979
1.05036e-06
0.000133536
1.44339e-06
0.000131562
1.9742e-06
0.000128846
2.71537e-06
0.000125059
3.78762e-06
0.000119661
5.39747e-06
0.000111737
7.92422e-06
9.95942e-05
1.2143e-05
2.02679e-05
7.93264e-05
9.96965e-05
-1.90934e-07
9.98764e-05
-3.48767e-07
0.000100128
-4.87973e-07
0.000100443
-6.10109e-07
0.000100815
-7.19407e-07
0.000101238
-8.18215e-07
0.000101707
-9.08142e-07
0.000102218
-9.90469e-07
0.000102769
-1.06619e-06
0.000103356
-1.13608e-06
0.000103977
-1.20079e-06
0.000104628
-1.26084e-06
0.000105309
-1.31666e-06
0.000106016
-1.36861e-06
0.000106748
-1.41699e-06
0.000107503
-1.46206e-06
0.000108281
-1.50404e-06
0.000109078
-1.54311e-06
0.000109894
-1.57942e-06
0.000110728
-1.61311e-06
0.000111577
-1.64429e-06
0.000112442
-1.67306e-06
0.00011332
-1.6995e-06
0.00011421
-1.72368e-06
0.000115112
-1.74565e-06
0.000116024
-1.76548e-06
0.000116946
-1.7832e-06
0.000117875
-1.79884e-06
0.000118811
-1.81244e-06
0.000119754
-1.82402e-06
0.000120701
-1.83359e-06
0.000121652
-1.84117e-06
0.000122606
-1.84677e-06
0.000123562
-1.85039e-06
0.000124518
-1.85202e-06
0.000125475
-1.85167e-06
0.00012643
-1.84931e-06
0.000127383
-1.84494e-06
0.000128332
-1.83854e-06
0.000129277
-1.83006e-06
0.000130217
-1.81949e-06
0.00013115
-1.80677e-06
0.000132075
-1.79185e-06
0.000132992
-1.77468e-06
0.000133898
-1.75518e-06
0.000134793
-1.73326e-06
0.000135675
-1.70882e-06
0.000136543
-1.68175e-06
0.000137396
-1.6519e-06
0.000138232
-1.61911e-06
0.000139049
-1.58319e-06
0.000139846
-1.54392e-06
0.000140621
-1.50102e-06
0.000141371
-1.45418e-06
0.000142096
-1.40304e-06
0.000142791
-1.34715e-06
0.000143455
-1.28598e-06
0.000144084
-1.2189e-06
0.000144676
-1.14514e-06
0.000145225
-1.06379e-06
0.000145728
-9.73696e-07
0.00014618
-8.73472e-07
0.000146574
-7.61379e-07
0.000146904
-6.35241e-07
0.000147161
-4.92296e-07
0.000147335
-3.29009e-07
0.000147413
-1.40796e-07
0.00014738
7.83725e-08
0.000147216
3.36654e-07
0.000146898
6.45251e-07
0.000146394
1.01975e-06
0.000145663
1.48229e-06
0.000144648
2.06495e-06
0.000143276
2.81518e-06
0.000141446
3.80443e-06
0.00013902
5.14161e-06
0.000135815
6.9924e-06
0.000131608
9.60448e-06
0.000126192
1.33403e-05
0.000119699
1.86367e-05
2.52874e-05
0.000114679
0.000106676
-2.91934e-07
0.000106867
-5.3915e-07
0.000107134
-7.55365e-07
0.000107469
-9.45185e-07
0.000107865
-1.11497e-06
0.000108315
-1.26843e-06
0.000108815
-1.40806e-06
0.000109361
-1.53587e-06
0.000109948
-1.65341e-06
0.000110574
-1.76189e-06
0.000111236
-1.8623e-06
0.000111931
-1.95547e-06
0.000112657
-2.04206e-06
0.000113411
-2.12264e-06
0.000114192
-2.19768e-06
0.000114998
-2.26757e-06
0.000115827
-2.33265e-06
0.000116677
-2.39321e-06
0.000117547
-2.44948e-06
0.000118436
-2.50168e-06
0.000119342
-2.54998e-06
0.000120264
-2.59453e-06
0.0001212
-2.63545e-06
0.00012215
-2.67287e-06
0.000123112
-2.70686e-06
0.000124084
-2.73751e-06
0.000125066
-2.76488e-06
0.000126057
-2.78903e-06
0.000127055
-2.81e-06
0.000128059
-2.82784e-06
0.000129068
-2.84255e-06
0.000130081
-2.85418e-06
0.000131098
-2.86271e-06
0.000132116
-2.86818e-06
0.000133135
-2.87056e-06
0.000134153
-2.86986e-06
0.00013517
-2.86606e-06
0.000136185
-2.85912e-06
0.000137196
-2.84902e-06
0.000138202
-2.83571e-06
0.000139202
-2.81915e-06
0.000140194
-2.79926e-06
0.000141179
-2.77596e-06
0.000142154
-2.74917e-06
0.000143117
-2.71877e-06
0.000144069
-2.68462e-06
0.000145007
-2.64658e-06
0.00014593
-2.60447e-06
0.000146836
-2.55806e-06
0.000147725
-2.50712e-06
0.000148593
-2.45135e-06
0.00014944
-2.39041e-06
0.000150263
-2.3239e-06
0.00015106
-2.25134e-06
0.00015183
-2.17216e-06
0.000152568
-2.08572e-06
0.000153274
-1.9912e-06
0.000153943
-1.88766e-06
0.000154572
-1.77397e-06
0.000155157
-1.64874e-06
0.000155693
-1.5103e-06
0.000156177
-1.35657e-06
0.0001566
-1.18503e-06
0.000156958
-9.92487e-07
0.000157241
-7.74972e-07
0.000157439
-5.2742e-07
0.000157542
-2.43342e-07
0.000157535
8.56483e-08
0.000157401
4.70633e-07
0.00015712
9.26498e-07
0.000156666
1.47343e-06
0.000156009
2.13909e-06
0.000155112
2.96184e-06
0.000153932
3.99537e-06
0.000152422
5.31494e-06
0.000150538
7.02518e-06
0.000148264
9.26674e-06
0.000145654
1.2214e-05
0.000142954
1.60409e-05
0.000140835
2.07552e-05
2.56237e-05
0.000140499
0.000114144
-3.96175e-07
0.000114345
-7.39629e-07
0.000114628
-1.03813e-06
0.000114983
-1.30048e-06
0.000115403
-1.53504e-06
0.000115882
-1.74695e-06
0.000116414
-1.93973e-06
0.000116994
-2.11615e-06
0.000117619
-2.27834e-06
0.000118286
-2.42801e-06
0.00011899
-2.56653e-06
0.00011973
-2.69502e-06
0.000120502
-2.81442e-06
0.000121306
-2.9255e-06
0.000122137
-3.02891e-06
0.000122995
-3.12522e-06
0.000123878
-3.21487e-06
0.000124783
-3.29826e-06
0.00012571
-3.37574e-06
0.000126656
-3.44758e-06
0.00012762
-3.51403e-06
0.000128601
-3.57529e-06
0.000129598
-3.63154e-06
0.000130608
-3.68294e-06
0.000131632
-3.72961e-06
0.000132666
-3.77166e-06
0.000133711
-3.80917e-06
0.000134764
-3.84224e-06
0.000135826
-3.87091e-06
0.000136893
-3.89524e-06
0.000137967
-3.91527e-06
0.000139044
-3.93102e-06
0.000140124
-3.94252e-06
0.000141206
-3.94977e-06
0.000142289
-3.95276e-06
0.000143371
-3.95149e-06
0.000144451
-3.94594e-06
0.000145528
-3.93607e-06
0.000146601
-3.92183e-06
0.000147669
-3.90318e-06
0.00014873
-3.88003e-06
0.000149784
-3.8523e-06
0.000150828
-3.81988e-06
0.000151862
-3.78264e-06
0.000152884
-3.74044e-06
0.000153892
-3.6931e-06
0.000154887
-3.64042e-06
0.000155864
-3.58214e-06
0.000156825
-3.51798e-06
0.000157765
-3.44762e-06
0.000158685
-3.37066e-06
0.000159581
-3.28664e-06
0.000160453
-3.19503e-06
0.000161297
-3.09519e-06
0.000162111
-2.98639e-06
0.000162893
-2.86774e-06
0.000163641
-2.73821e-06
0.00016435
-2.59654e-06
0.000165017
-2.44125e-06
0.000165639
-2.27056e-06
0.000166211
-2.08229e-06
0.000166729
-1.87381e-06
0.000167186
-1.6419e-06
0.000167576
-1.38257e-06
0.000167892
-1.09088e-06
0.000168125
-7.60624e-07
0.000168266
-3.83993e-07
0.000168303
4.89031e-08
0.000168223
5.5074e-07
0.000168011
1.13795e-06
0.000167653
1.83214e-06
0.00016713
2.66155e-06
0.000166429
3.66321e-06
0.000165539
4.88533e-06
0.000164464
6.3898e-06
0.000163237
8.25305e-06
0.000161941
1.05621e-05
0.000160758
1.33971e-05
0.000160017
1.67823e-05
0.00016021
2.05623e-05
2.4146e-05
0.000161688
0.000122135
-5.03533e-07
0.000122345
-9.49798e-07
0.000122643
-1.33603e-06
0.000123019
-1.67598e-06
0.000123464
-1.97985e-06
0.000123971
-2.25426e-06
0.000124535
-2.50383e-06
0.000125151
-2.73215e-06
0.000125815
-2.94201e-06
0.000126523
-3.13562e-06
0.000127272
-3.31475e-06
0.000128058
-3.48087e-06
0.000128879
-3.63519e-06
0.000129732
-3.77872e-06
0.000130616
-3.9123e-06
0.000131528
-4.03666e-06
0.000132466
-4.15239e-06
0.000133428
-4.26e-06
0.000134412
-4.35993e-06
0.000135418
-4.45256e-06
0.000136442
-4.53819e-06
0.000137485
-4.61709e-06
0.000138543
-4.6895e-06
0.000139616
-4.75561e-06
0.000140702
-4.81558e-06
0.000141801
-4.86957e-06
0.00014291
-4.91768e-06
0.000144028
-4.96002e-06
0.000145154
-4.99667e-06
0.000146287
-5.02769e-06
0.000147425
-5.05313e-06
0.000148568
-5.07303e-06
0.000149713
-5.08742e-06
0.00015086
-5.09631e-06
0.000152007
-5.09969e-06
0.000153154
-5.09755e-06
0.000154298
-5.08987e-06
0.000155439
-5.07661e-06
0.000156575
-5.0577e-06
0.000157705
-5.03308e-06
0.000158828
-5.00266e-06
0.000159943
-4.96632e-06
0.000161047
-4.92394e-06
0.00016214
-4.87535e-06
0.00016322
-4.82037e-06
0.000164286
-4.75878e-06
0.000165337
-4.69033e-06
0.00016637
-4.61469e-06
0.000167383
-4.53154e-06
0.000168376
-4.44044e-06
0.000169347
-4.34092e-06
0.000170293
-4.23242e-06
0.000171212
-4.11426e-06
0.000172103
-3.98569e-06
0.000172963
-3.84579e-06
0.000173789
-3.69349e-06
0.000174578
-3.52753e-06
0.000175328
-3.34641e-06
0.000176036
-3.14836e-06
0.000176696
-2.93125e-06
0.000177307
-2.69254e-06
0.000177862
-2.42915e-06
0.000178358
-2.13738e-06
0.000178788
-1.8127e-06
0.000179147
-1.44958e-06
0.000179428
-1.04121e-06
0.000179623
-5.79212e-07
0.000179725
-5.32358e-08
0.000179727
5.49501e-07
0.00017962
1.24474e-06
0.0001794
2.05246e-06
0.000179064
2.99731e-06
0.000178618
4.10936e-06
0.000178079
5.42452e-06
0.000177485
6.98381e-06
0.000176908
8.83033e-06
0.000176469
1.10011e-05
0.000176357
1.35093e-05
0.000176831
1.6308e-05
0.000178167
1.92267e-05
2.18815e-05
0.000180431
0.000130685
-6.14006e-07
0.000130904
-1.16933e-06
0.000131217
-1.64883e-06
0.000131613
-2.07158e-06
0.000132083
-2.44948e-06
0.000132619
-2.79065e-06
0.000133217
-3.10086e-06
0.000133869
-3.38456e-06
0.000134573
-3.64525e-06
0.000135323
-3.88567e-06
0.000136117
-4.10804e-06
0.00013695
-4.31419e-06
0.000137821
-4.50564e-06
0.000138726
-4.68364e-06
0.000139663
-4.84924e-06
0.000140631
-5.00334e-06
0.000141625
-5.14668e-06
0.000142645
-5.27992e-06
0.00014369
-5.40358e-06
0.000144756
-5.51813e-06
0.000145842
-5.62397e-06
0.000146947
-5.72142e-06
0.000148068
-5.81079e-06
0.000149205
-5.89231e-06
0.000150356
-5.96619e-06
0.00015152
-6.03261e-06
0.000152694
-6.09172e-06
0.000153878
-6.14363e-06
0.000155071
-6.18846e-06
0.00015627
-6.22629e-06
0.000157474
-6.25718e-06
0.000158683
-6.28117e-06
0.000159894
-6.29831e-06
0.000161107
-6.30861e-06
0.00016232
-6.31207e-06
0.000163531
-6.30867e-06
0.00016474
-6.29839e-06
0.000165945
-6.28117e-06
0.000167145
-6.25696e-06
0.000168338
-6.22567e-06
0.000169523
-6.18719e-06
0.000170698
-6.14139e-06
0.000171863
-6.08812e-06
0.000173015
-6.02718e-06
0.000174153
-5.95836e-06
0.000175276
-5.8814e-06
0.000176382
-5.79599e-06
0.00017747
-5.70178e-06
0.000178537
-5.59835e-06
0.000179582
-5.48521e-06
0.000180603
-5.36179e-06
0.000181598
-5.22746e-06
0.000182566
-5.08142e-06
0.000183503
-4.9228e-06
0.000184408
-4.75055e-06
0.000185278
-4.56344e-06
0.000186111
-4.36004e-06
0.000186903
-4.13867e-06
0.000187653
-3.89733e-06
0.000188355
-3.63369e-06
0.000189008
-3.34496e-06
0.000189607
-3.02782e-06
0.000190148
-2.67833e-06
0.000190627
-2.29177e-06
0.00019104
-1.86247e-06
0.000191382
-1.38365e-06
0.00019165
-8.47135e-07
0.000191841
-2.4319e-07
0.00019195
4.39672e-07
0.000191981
1.2148e-06
0.000191935
2.09821e-06
0.000191824
3.10838e-06
0.000191667
4.26588e-06
0.0001915
5.59245e-06
0.000191375
7.10889e-06
0.000191374
8.83092e-06
0.000191613
1.07619e-05
0.000192243
1.28802e-05
0.00019343
1.51204e-05
0.00019531
1.73467e-05
1.93323e-05
0.000197859
0.000139834
-7.27667e-07
0.000140062
-1.39799e-06
0.00014039
-1.97633e-06
0.000140805
-2.48711e-06
0.0001413
-2.94393e-06
0.000141866
-3.35628e-06
0.000142496
-3.73112e-06
0.000143186
-4.07385e-06
0.00014393
-4.38867e-06
0.000144723
-4.67891e-06
0.000145563
-4.94726e-06
0.000146445
-5.19595e-06
0.000147366
-5.4268e-06
0.000148324
-5.64134e-06
0.000149316
-5.84086e-06
0.00015034
-6.02643e-06
0.000151392
-6.19896e-06
0.000152472
-6.35923e-06
0.000153577
-6.50789e-06
0.000154705
-6.64551e-06
0.000155854
-6.77257e-06
0.000157022
-6.88948e-06
0.000158208
-6.99657e-06
0.000159411
-7.09416e-06
0.000160628
-7.1825e-06
0.000161857
-7.26179e-06
0.000163098
-7.33223e-06
0.000164349
-7.39397e-06
0.000165608
-7.44712e-06
0.000166874
-7.4918e-06
0.000168146
-7.52809e-06
0.000169421
-7.55604e-06
0.000170699
-7.5757e-06
0.000171978
-7.58709e-06
0.000173256
-7.59021e-06
0.000174533
-7.58507e-06
0.000175807
-7.57161e-06
0.000177076
-7.5498e-06
0.000178339
-7.51956e-06
0.000179595
-7.48079e-06
0.000180841
-7.43338e-06
0.000182077
-7.37718e-06
0.000183302
-7.31201e-06
0.000184512
-7.23766e-06
0.000185708
-7.15388e-06
0.000186888
-7.06038e-06
0.000188049
-6.95681e-06
0.00018919
-6.84277e-06
0.00019031
-6.7178e-06
0.000191406
-6.58135e-06
0.000192478
-6.43279e-06
0.000193522
-6.27139e-06
0.000194537
-6.09631e-06
0.000195521
-5.90657e-06
0.000196472
-5.70102e-06
0.000197387
-5.47835e-06
0.000198264
-5.23701e-06
0.000199101
-4.97522e-06
0.000199895
-4.69088e-06
0.000200643
-4.38156e-06
0.000201342
-4.04442e-06
0.000201991
-3.67613e-06
0.000202586
-3.27279e-06
0.000203124
-2.82986e-06
0.000203603
-2.34202e-06
0.000204023
-1.80307e-06
0.000204382
-1.20584e-06
0.000204681
-5.42092e-07
0.000204923
1.9748e-07
0.000205115
1.02277e-06
0.000205269
1.9446e-06
0.000205403
2.97452e-06
0.000205545
4.12368e-06
0.000205736
5.40144e-06
0.000206032
6.81317e-06
0.000206506
8.35685e-06
0.00020725
1.00183e-05
0.000208366
1.17643e-05
0.000209951
1.35351e-05
0.000212062
1.52367e-05
1.67418e-05
0.000214652
0.000149623
-8.44648e-07
0.000149861
-1.63558e-06
0.000150203
-2.31831e-06
0.000150638
-2.92239e-06
0.000151157
-3.46307e-06
0.000151752
-3.95114e-06
0.000152416
-4.39477e-06
0.000153143
-4.80028e-06
0.000153927
-5.17265e-06
0.000154764
-5.51583e-06
0.00015565
-5.833e-06
0.000156582
-6.12681e-06
0.000157555
-6.39942e-06
0.000158566
-6.65264e-06
0.000159614
-6.88801e-06
0.000160695
-7.1068e-06
0.000161806
-7.3101e-06
0.000162946
-7.49883e-06
0.000164113
-7.67377e-06
0.000165303
-7.83559e-06
0.000166516
-7.98486e-06
0.000167749
-8.12207e-06
0.000169001
-8.24763e-06
0.000170269
-8.3619e-06
0.000171552
-8.46519e-06
0.000172848
-8.55774e-06
0.000174157
-8.63979e-06
0.000175475
-8.71151e-06
0.000176801
-8.77305e-06
0.000178134
-8.82454e-06
0.000179473
-8.86609e-06
0.000180815
-8.89776e-06
0.00018216
-8.91962e-06
0.000183505
-8.93169e-06
0.000184849
-8.93399e-06
0.000186191
-8.92651e-06
0.000187529
-8.90921e-06
0.000188862
-8.88206e-06
0.000190188
-8.84497e-06
0.000191505
-8.79784e-06
0.000192813
-8.74054e-06
0.000194109
-8.67292e-06
0.000195392
-8.59479e-06
0.000196661
-8.50591e-06
0.000197913
-8.40601e-06
0.000199148
-8.29478e-06
0.000200363
-8.17185e-06
0.000201558
-8.03677e-06
0.000202729
-7.88906e-06
0.000203876
-7.72813e-06
0.000204997
-7.55331e-06
0.00020609
-7.36382e-06
0.000207153
-7.15878e-06
0.000208184
-6.93717e-06
0.000209181
-6.69779e-06
0.000210142
-6.4393e-06
0.000211065
-6.16014e-06
0.000211949
-5.8585e-06
0.00021279
-5.53233e-06
0.000213588
-5.17926e-06
0.000214341
-4.79657e-06
0.000215046
-4.38115e-06
0.000215703
-3.92946e-06
0.000216311
-3.43747e-06
0.000216869
-2.90062e-06
0.00021738
-2.31382e-06
0.000217846
-1.67142e-06
0.000218271
-9.67272e-07
0.000218664
-1.94799e-07
0.000219034
6.52414e-07
0.000219399
1.57984e-06
0.000219781
2.59271e-06
0.00022021
3.69447e-06
0.000220726
4.88557e-06
0.000221378
6.16176e-06
0.000222223
7.51198e-06
0.000223325
8.91587e-06
0.000224748
1.03411e-05
0.000226542
1.17414e-05
0.000228722
1.30563e-05
1.42157e-05
0.000231248
0.000160098
-9.651e-07
0.000160344
-1.882e-06
0.000160701
-2.67461e-06
0.000161155
-3.37719e-06
0.000161699
-4.0067e-06
0.000162323
-4.57511e-06
0.000163021
-5.09174e-06
0.000163785
-5.56391e-06
0.000164609
-5.99735e-06
0.000165491
-6.39667e-06
0.000166424
-6.76557e-06
0.000167404
-7.10714e-06
0.000168429
-7.42391e-06
0.000169495
-7.718e-06
0.000170599
-7.99119e-06
0.000171737
-8.24498e-06
0.000172908
-8.48064e-06
0.000174109
-8.69924e-06
0.000175338
-8.90172e-06
0.000176591
-9.08884e-06
0.000177868
-9.26128e-06
0.000179166
-9.41961e-06
0.000180484
-9.56432e-06
0.000181818
-9.69583e-06
0.000183168
-9.81449e-06
0.000184531
-9.92062e-06
0.000185907
-1.00145e-05
0.000187292
-1.00963e-05
0.000188686
-1.01662e-05
0.000190086
-1.02243e-05
0.000191491
-1.02709e-05
0.0001929
-1.0306e-05
0.000194311
-1.03296e-05
0.000195721
-1.03419e-05
0.000197131
-1.03427e-05
0.000198537
-1.03322e-05
0.000199938
-1.03104e-05
0.000201334
-1.0277e-05
0.000202722
-1.02322e-05
0.0002041
-1.01757e-05
0.000205467
-1.01075e-05
0.000206822
-1.00274e-05
0.000208163
-9.93519e-06
0.000209488
-9.83064e-06
0.000210796
-9.71346e-06
0.000212085
-9.58333e-06
0.000213354
-9.43986e-06
0.0002146
-9.28262e-06
0.000215822
-9.11107e-06
0.000217019
-8.92465e-06
0.000218189
-8.72265e-06
0.00021933
-8.5043e-06
0.00022044
-8.26872e-06
0.000221518
-8.01488e-06
0.000222562
-7.74164e-06
0.000223571
-7.44766e-06
0.000224542
-7.13147e-06
0.000225475
-6.79138e-06
0.000226369
-6.42547e-06
0.000227221
-6.03161e-06
0.000228032
-5.6074e-06
0.000228802
-5.15016e-06
0.000229529
-4.65696e-06
0.000230217
-4.12455e-06
0.000230866
-3.54945e-06
0.00023148
-2.92797e-06
0.000232065
-2.25627e-06
0.000232628
-1.53053e-06
0.000233181
-7.47075e-07
0.000233736
9.74355e-08
0.000234311
1.00463e-06
0.00023493
1.97419e-06
0.00023562
3.00435e-06
0.000236416
4.09023e-06
0.000237355
5.22288e-06
0.000238478
6.38828e-06
0.000239828
7.56641e-06
0.000241438
8.73073e-06
0.000243332
9.84835e-06
0.000245506
1.08818e-05
1.1793e-05
0.000247929
0.000171306
-1.08917e-06
0.000171561
-2.13713e-06
0.000171932
-3.04505e-06
0.000172406
-3.85127e-06
0.000172974
-4.57455e-06
0.000173627
-5.22793e-06
0.000174357
-5.82184e-06
0.000175158
-6.36456e-06
0.000176024
-6.86265e-06
0.000176949
-7.32136e-06
0.000177929
-7.74497e-06
0.000178959
-8.137e-06
0.000180036
-8.50036e-06
0.000181156
-8.83751e-06
0.000182315
-9.1505e-06
0.000183512
-9.44106e-06
0.000184743
-9.71066e-06
0.000186004
-9.96054e-06
0.000187295
-1.01918e-05
0.000188612
-1.04053e-05
0.000189953
-1.06018e-05
0.000191316
-1.0782e-05
0.000192699
-1.09465e-05
0.000194099
-1.10957e-05
0.000195515
-1.12301e-05
0.000196945
-1.135e-05
0.000198387
-1.14558e-05
0.000199839
-1.15477e-05
0.0002013
-1.16258e-05
0.000202766
-1.16905e-05
0.000204238
-1.17417e-05
0.000205712
-1.17798e-05
0.000207188
-1.18047e-05
0.000208663
-1.18165e-05
0.000210136
-1.18152e-05
0.000211605
-1.18009e-05
0.000213069
-1.17736e-05
0.000214526
-1.17332e-05
0.000215974
-1.16796e-05
0.000217411
-1.16128e-05
0.000218837
-1.15326e-05
0.000220249
-1.14389e-05
0.000221646
-1.13315e-05
0.000223026
-1.12101e-05
0.000224387
-1.10745e-05
0.000225729
-1.09244e-05
0.000227049
-1.07593e-05
0.000228345
-1.05789e-05
0.000229617
-1.03826e-05
0.000230863
-1.01698e-05
0.000232081
-9.94e-06
0.000233269
-9.69235e-06
0.000234427
-9.42603e-06
0.000235552
-9.14009e-06
0.000236644
-8.83346e-06
0.000237702
-8.50496e-06
0.000238724
-8.15327e-06
0.00023971
-7.7769e-06
0.000240659
-7.37424e-06
0.000241571
-6.94351e-06
0.000242447
-6.48279e-06
0.000243287
-5.99002e-06
0.000244093
-5.46302e-06
0.000244868
-4.89953e-06
0.000245616
-4.2973e-06
0.000246343
-3.65412e-06
0.000247054
-2.96799e-06
0.000247761
-2.23727e-06
0.000248475
-1.46085e-06
0.000249211
-6.38286e-07
0.000249986
2.29825e-07
0.00025082
1.14023e-06
0.000251737
2.08735e-06
0.000252764
3.06393e-06
0.000253927
4.0597e-06
0.000255254
5.06116e-06
0.000256769
6.05147e-06
0.000258489
7.01071e-06
0.000260421
7.91676e-06
0.000262556
8.7469e-06
9.48064e-06
0.000264868
0.000183299
-1.21699e-06
0.000183563
-2.40087e-06
0.000183947
-3.42941e-06
0.000184441
-4.34433e-06
0.000185032
-5.16623e-06
0.000185714
-5.90917e-06
0.000186477
-6.58461e-06
0.000187314
-7.20182e-06
0.00018822
-7.76815e-06
0.000189189
-8.28955e-06
0.000190215
-8.77083e-06
0.000191294
-9.21601e-06
0.000192423
-9.62842e-06
0.000193597
-1.00108e-05
0.000194812
-1.03656e-05
0.000196067
-1.06947e-05
0.000197356
-1.09998e-05
0.000198678
-1.12823e-05
0.000200031
-1.15435e-05
0.00020141
-1.17843e-05
0.000202815
-1.20058e-05
0.000204242
-1.22086e-05
0.00020569
-1.23934e-05
0.000207155
-1.25607e-05
0.000208637
-1.27111e-05
0.000210133
-1.2845e-05
0.00021164
-1.29627e-05
0.000213158
-1.30645e-05
0.000214683
-1.31507e-05
0.000216215
-1.32215e-05
0.000217751
-1.32771e-05
0.000219289
-1.33176e-05
0.000220828
-1.33431e-05
0.000222366
-1.33537e-05
0.000223901
-1.33496e-05
0.000225432
-1.33307e-05
0.000226955
-1.3297e-05
0.000228471
-1.32485e-05
0.000229977
-1.31851e-05
0.000231472
-1.31069e-05
0.000232954
-1.30136e-05
0.00023442
-1.29052e-05
0.000235871
-1.27814e-05
0.000237303
-1.26421e-05
0.000238716
-1.2487e-05
0.000240108
-1.23158e-05
0.000241478
-1.21282e-05
0.000242823
-1.19237e-05
0.000244143
-1.1702e-05
0.000245436
-1.14624e-05
0.000246701
-1.12044e-05
0.000247936
-1.09274e-05
0.000249141
-1.06306e-05
0.000250314
-1.03131e-05
0.000251456
-9.97419e-06
0.000252564
-9.61275e-06
0.000253638
-9.22775e-06
0.00025468
-8.81802e-06
0.000255688
-8.38234e-06
0.000256664
-7.91939e-06
0.00025761
-7.42786e-06
0.000258526
-6.90638e-06
0.000259417
-6.35364e-06
0.000260286
-5.76841e-06
0.000261139
-5.14964e-06
0.000261981
-4.49655e-06
0.000262822
-3.80875e-06
0.000263672
-3.0864e-06
0.000264541
-2.33038e-06
0.000265446
-1.54238e-06
0.000266401
-7.24951e-07
0.000267423
1.18127e-07
0.00026853
9.80377e-07
0.000269741
1.85319e-06
0.000271074
2.72681e-06
0.000272545
3.58983e-06
0.000274168
4.42923e-06
0.000275947
5.23095e-06
0.000277884
5.98059e-06
0.000279966
6.66462e-06
7.27213e-06
0.000282175
0.000196132
-1.34863e-06
0.000196404
-2.67308e-06
0.000196802
-3.82741e-06
0.000197314
-4.85595e-06
0.000197929
-5.78123e-06
0.000198638
-6.61824e-06
0.000199434
-7.37943e-06
0.000200307
-8.075e-06
0.000201252
-8.71315e-06
0.000202264
-9.30047e-06
0.000203336
-9.8424e-06
0.000204464
-1.03434e-05
0.000205643
-1.08073e-05
0.00020687
-1.12371e-05
0.00020814
-1.16356e-05
0.000209451
-1.20049e-05
0.000210799
-1.2347e-05
0.000212181
-1.26635e-05
0.000213593
-1.29557e-05
0.000215035
-1.32249e-05
0.000216501
-1.3472e-05
0.000217991
-1.3698e-05
0.000219502
-1.39036e-05
0.000221032
-1.40894e-05
0.000222577
-1.4256e-05
0.000224137
-1.44038e-05
0.000225708
-1.45333e-05
0.000227289
-1.46449e-05
0.000228878
-1.47388e-05
0.000230472
-1.48153e-05
0.000232071
-1.48746e-05
0.000233671
-1.49169e-05
0.000235271
-1.49424e-05
0.000236869
-1.49511e-05
0.000238463
-1.49432e-05
0.000240052
-1.49186e-05
0.000241633
-1.48776e-05
0.000243205
-1.482e-05
0.000244766
-1.47458e-05
0.000246315
-1.4655e-05
0.00024785
-1.45476e-05
0.000249368
-1.44234e-05
0.00025087
-1.42822e-05
0.000252352
-1.41239e-05
0.000253814
-1.39483e-05
0.000255254
-1.37552e-05
0.00025667
-1.35442e-05
0.000258062
-1.33151e-05
0.000259428
-1.30674e-05
0.000260767
-1.28008e-05
0.000262078
-1.25146e-05
0.000263359
-1.22086e-05
0.000264611
-1.18819e-05
0.000265832
-1.15341e-05
0.000267023
-1.11645e-05
0.000268183
-1.07723e-05
0.000269312
-1.03568e-05
0.000270412
-9.91718e-06
0.000271482
-9.45273e-06
0.000272526
-8.96267e-06
0.000273545
-8.4463e-06
0.000274542
-7.90302e-06
0.000275521
-7.33235e-06
0.000276487
-6.73403e-06
0.000277445
-6.10808e-06
0.000278404
-5.45491e-06
0.000279371
-4.77539e-06
0.000280355
-4.07099e-06
0.000281369
-3.34388e-06
0.000282424
-2.59702e-06
0.000283533
-1.8342e-06
0.000284712
-1.05999e-06
0.000285972
-2.79535e-07
0.000287325
4.99811e-07
0.000288783
1.26938e-06
0.000290353
2.01959e-06
0.000292042
2.74086e-06
0.000293849
3.42371e-06
0.000295771
4.05893e-06
0.000297797
4.63859e-06
5.15709e-06
0.000299912
0.000209863
-1.4841e-06
0.000210143
-2.95356e-06
0.000210555
-4.23862e-06
0.000211085
-5.38557e-06
0.000211722
-6.41881e-06
0.000212459
-7.35429e-06
0.000213285
-8.20533e-06
0.000214193
-8.98307e-06
0.000215177
-9.69652e-06
0.00021623
-1.0353e-05
0.000217346
-1.09584e-05
0.000218521
-1.15179e-05
0.00021975
-1.20356e-05
0.000221029
-1.25149e-05
0.000222353
-1.29589e-05
0.000223718
-1.33701e-05
0.000225123
-1.37506e-05
0.000226562
-1.41023e-05
0.000228034
-1.44266e-05
0.000229535
-1.47249e-05
0.000231062
-1.49985e-05
0.000232612
-1.52481e-05
0.000234184
-1.54748e-05
0.000235775
-1.56793e-05
0.000237382
-1.58621e-05
0.000239003
-1.60238e-05
0.000240635
-1.6165e-05
0.000242277
-1.6286e-05
0.000243926
-1.63872e-05
0.00024558
-1.64688e-05
0.000247238
-1.65313e-05
0.000248896
-1.65746e-05
0.000250554
-1.65992e-05
0.000252209
-1.66051e-05
0.000253859
-1.65924e-05
0.000255502
-1.65613e-05
0.000257137
-1.65119e-05
0.000258762
-1.64441e-05
0.000260375
-1.6358e-05
0.000261974
-1.62536e-05
0.000263558
-1.61309e-05
0.000265125
-1.59898e-05
0.000266673
-1.58302e-05
0.000268202
-1.5652e-05
0.00026971
-1.54551e-05
0.000271194
-1.52394e-05
0.000272655
-1.50045e-05
0.000274091
-1.47503e-05
0.0002755
-1.44765e-05
0.000276883
-1.41829e-05
0.000278238
-1.38691e-05
0.000279565
-1.35347e-05
0.000280863
-1.31794e-05
0.000282132
-1.28028e-05
0.000283372
-1.24046e-05
0.000284584
-1.19842e-05
0.000285769
-1.15414e-05
0.000286928
-1.10758e-05
0.000288063
-1.05871e-05
0.000289176
-1.00751e-05
0.00029027
-9.53983e-06
0.000291348
-8.98123e-06
0.000292416
-8.39965e-06
0.000293478
-7.79566e-06
0.00029454
-7.17012e-06
0.00029561
-6.52431e-06
0.000296695
-5.85998e-06
0.000297803
-5.17939e-06
0.000298945
-4.48539e-06
0.000300129
-3.78146e-06
0.000301367
-3.07173e-06
0.000302668
-2.36092e-06
0.000304043
-1.65421e-06
0.0003055
-9.56835e-07
0.000307044
-2.74753e-07
0.000308679
3.85128e-07
0.000310404
1.01571e-06
0.000312218
1.61032e-06
0.000314114
2.16284e-06
0.000316084
2.66876e-06
3.12544e-06
0.000318116
0.000224555
-1.62333e-06
0.000224844
-3.242e-06
0.000225268
-4.66249e-06
0.000225815
-5.93242e-06
0.000226474
-7.07802e-06
0.000227236
-8.11616e-06
0.000228092
-9.06101e-06
0.000229034
-9.92458e-06
0.000230055
-1.07167e-05
0.000231148
-1.14453e-05
0.000232307
-1.21171e-05
0.000233527
-1.27376e-05
0.000234803
-1.33113e-05
0.000236131
-1.38421e-05
0.000237506
-1.43335e-05
0.000238925
-1.47881e-05
0.000240383
-1.52083e-05
0.000241878
-1.55962e-05
0.000243405
-1.59535e-05
0.000244963
-1.62817e-05
0.000246547
-1.65822e-05
0.000248156
-1.68559e-05
0.000249786
-1.71039e-05
0.000251434
-1.73271e-05
0.000253099
-1.75261e-05
0.000254778
-1.77015e-05
0.000256468
-1.7854e-05
0.000258166
-1.7984e-05
0.000259872
-1.80919e-05
0.000261582
-1.8178e-05
0.000263294
-1.82428e-05
0.000265007
-1.82864e-05
0.000266718
-1.83092e-05
0.000268425
-1.83113e-05
0.000270126
-1.82929e-05
0.000271819
-1.82542e-05
0.000273504
-1.81952e-05
0.000275176
-1.81162e-05
0.000276836
-1.80171e-05
0.000278481
-1.7898e-05
0.00028011
-1.7759e-05
0.000281721
-1.76e-05
0.000283313
-1.74211e-05
0.000284884
-1.72223e-05
0.000286432
-1.70034e-05
0.000287958
-1.67645e-05
0.00028946
-1.65054e-05
0.000290936
-1.62261e-05
0.000292387
-1.59264e-05
0.00029381
-1.56062e-05
0.000295207
-1.52654e-05
0.000296577
-1.49039e-05
0.00029792
-1.45215e-05
0.000299235
-1.41181e-05
0.000300525
-1.36936e-05
0.000301789
-1.32481e-05
0.00030303
-1.27815e-05
0.000304248
-1.22938e-05
0.000305447
-1.17854e-05
0.000306628
-1.12565e-05
0.000307797
-1.07076e-05
0.000308955
-1.01394e-05
0.000310108
-9.55275e-06
0.000311262
-8.9489e-06
0.000312421
-8.32931e-06
0.000313593
-7.69581e-06
0.000314784
-7.05063e-06
0.000316001
-6.39641e-06
0.000317252
-5.7362e-06
0.000318545
-5.0735e-06
0.000319885
-4.4122e-06
0.000321281
-3.75654e-06
0.000322738
-3.11102e-06
0.000324262
-2.48028e-06
0.000325856
-1.86899e-06
0.000327523
-1.28128e-06
0.00032926
-7.21263e-07
0.000331063
-1.92989e-07
0.000332927
2.99769e-07
0.000334841
7.54138e-07
1.16877e-06
0.000336798
0.000240276
-1.76618e-06
0.000240572
-3.53796e-06
0.000241008
-5.09822e-06
0.000241571
-6.49545e-06
0.000242251
-7.75753e-06
0.000243037
-8.90229e-06
0.000243921
-9.94468e-06
0.000244895
-1.08975e-05
0.00024595
-1.17715e-05
0.00024708
-1.25752e-05
0.00024828
-1.3316e-05
0.000249543
-1.39997e-05
0.000250864
-1.46316e-05
0.000252238
-1.52158e-05
0.000253661
-1.57561e-05
0.000255129
-1.62554e-05
0.000256638
-1.67165e-05
0.000258184
-1.71416e-05
0.000259764
-1.75327e-05
0.000261375
-1.78914e-05
0.000263012
-1.82191e-05
0.000264675
-1.85172e-05
0.000266358
-1.87866e-05
0.00026806
-1.90284e-05
0.000269778
-1.92433e-05
0.00027151
-1.94321e-05
0.000273252
-1.95954e-05
0.000275003
-1.97338e-05
0.000276759
-1.98477e-05
0.00027852
-1.99376e-05
0.000280282
-2.00039e-05
0.000282043
-2.00469e-05
0.000283802
-2.00669e-05
0.000285555
-2.00641e-05
0.000287302
-2.00389e-05
0.00028904
-1.99915e-05
0.000290768
-1.9922e-05
0.000292483
-1.98305e-05
0.000294184
-1.97174e-05
0.000295869
-1.95826e-05
0.000297537
-1.94263e-05
0.000299187
-1.92487e-05
0.000300816
-1.90498e-05
0.000302424
-1.88296e-05
0.00030401
-1.85883e-05