/*--------------------------------*- C++ -*----------------------------------*\
| =========                 |                                                 |
| \\      /  F ield         | OpenFOAM: The Open Source CFD Toolbox           |
|  \\    /   O peration     | Version:  2106                                  |
|   \\  /    A nd           | Website:  www.openfoam.com                      |
|    \\/     M anipulation  |                                                 |
\*---------------------------------------------------------------------------*/
FoamFile
{
    version     2.0;
    format      ascii;
    arch        "LSB;label=32;scalar=64";
    class       volScalarField;
    location    "5";
    object      T;
}
// * * * * * * * * * * * * * * * * * * * * * * * * * * * * * * * * * * * * * //

dimensions      [0 0 0 1 0 0 0];

internalField   nonuniform List<scalar> 
12013
(
300.003
300.009
300.016
300.023
300.03
300.037
300.045
300.053
300.062
300.071
300.08
300.09
300.1
300.11
300.121
300.132
300.144
300.156
300.169
300.182
300.196
300.21
300.224
300.24
300.255
300.272
300.289
300.306
300.324
300.343
300.362
300.382
300.403
300.424
300.446
300.469
300.492
300.517
300.541
300.567
300.593
300.621
300.649
300.677
300.707
300.737
300.769
300.801
300.834
300.868
300.904
300.94
300.977
301.015
301.054
301.095
301.137
301.179
301.224
301.269
301.316
301.364
301.414
301.465
301.518
301.573
301.63
301.689
301.75
301.813
301.879
301.948
302.02
302.096
302.176
302.261
302.353
302.452
302.561
302.685
302.833
300.003
300.009
300.016
300.023
300.03
300.037
300.045
300.053
300.062
300.071
300.08
300.09
300.1
300.11
300.121
300.132
300.144
300.156
300.169
300.182
300.196
300.21
300.224
300.24
300.255
300.272
300.289
300.306
300.324
300.343
300.362
300.382
300.403
300.424
300.446
300.469
300.492
300.517
300.541
300.567
300.593
300.62
300.648
300.677
300.707
300.737
300.769
300.801
300.834
300.868
300.903
300.939
300.977
301.015
301.054
301.095
301.136
301.179
301.223
301.269
301.315
301.364
301.413
301.465
301.518
301.572
301.629
301.688
301.748
301.812
301.877
301.946
302.018
302.093
302.173
302.257
302.346
302.443
302.548
302.663
302.79
300.003
300.009
300.016
300.023
300.03
300.037
300.045
300.053
300.062
300.071
300.08
300.09
300.1
300.11
300.121
300.132
300.144
300.156
300.169
300.182
300.196
300.21
300.224
300.24
300.255
300.272
300.289
300.306
300.324
300.343
300.362
300.382
300.403
300.424
300.446
300.469
300.492
300.516
300.541
300.567
300.593
300.62
300.648
300.677
300.707
300.737
300.768
300.801
300.834
300.868
300.903
300.939
300.976
301.014
301.054
301.094
301.136
301.178
301.222
301.268
301.314
301.362
301.412
301.463
301.516
301.57
301.627
301.685
301.746
301.808
301.874
301.942
302.013
302.087
302.165
302.247
302.334
302.426
302.524
302.628
302.736
300.003
300.009
300.016
300.023
300.03
300.037
300.045
300.053
300.062
300.071
300.08
300.09
300.1
300.11
300.121
300.132
300.144
300.156
300.169
300.182
300.196
300.21
300.224
300.24
300.255
300.272
300.289
300.306
300.324
300.343
300.362
300.382
300.403
300.424
300.446
300.469
300.492
300.516
300.541
300.567
300.593
300.62
300.648
300.677
300.706
300.737
300.768
300.8
300.833
300.867
300.902
300.938
300.975
301.014
301.053
301.093
301.134
301.177
301.221
301.266
301.313
301.361
301.41
301.461
301.513
301.567
301.623
301.681
301.741
301.803
301.868
301.934
302.004
302.077
302.152
302.232
302.314
302.401
302.491
302.584
302.678
300.003
300.009
300.016
300.023
300.03
300.037
300.045
300.053
300.062
300.071
300.08
300.09
300.1
300.11
300.121
300.132
300.144
300.156
300.169
300.182
300.195
300.21
300.224
300.24
300.255
300.272
300.289
300.306
300.324
300.343
300.362
300.382
300.403
300.424
300.446
300.469
300.492
300.516
300.541
300.566
300.593
300.62
300.648
300.676
300.706
300.736
300.767
300.8
300.833
300.867
300.902
300.937
300.974
301.012
301.051
301.092
301.133
301.175
301.219
301.264
301.31
301.358
301.407
301.457
301.509
301.563
301.618
301.676
301.735
301.796
301.859
301.924
301.992
302.063
302.135
302.211
302.289
302.37
302.452
302.536
302.619
300.003
300.009
300.016
300.023
300.03
300.037
300.045
300.053
300.062
300.071
300.08
300.089
300.099
300.11
300.121
300.132
300.144
300.156
300.169
300.182
300.195
300.21
300.224
300.239
300.255
300.272
300.288
300.306
300.324
300.343
300.362
300.382
300.403
300.424
300.446
300.468
300.492
300.516
300.54
300.566
300.592
300.619
300.647
300.676
300.705
300.735
300.767
300.799
300.832
300.865
300.9
300.936
300.973
301.011
301.05
301.09
301.131
301.173
301.216
301.261
301.307
301.354
301.403
301.453
301.504
301.557
301.612
301.668
301.726
301.786
301.847
301.911
301.977
302.044
302.114
302.186
302.259
302.334
302.409
302.485
302.559
300.003
300.009
300.016
300.023
300.03
300.037
300.045
300.053
300.062
300.071
300.08
300.089
300.099
300.11
300.121
300.132
300.144
300.156
300.169
300.182
300.195
300.209
300.224
300.239
300.255
300.271
300.288
300.306
300.324
300.342
300.362
300.382
300.402
300.423
300.445
300.468
300.491
300.515
300.54
300.565
300.592
300.618
300.646
300.675
300.704
300.734
300.765
300.797
300.83
300.864
300.899
300.934
300.971
301.009
301.047
301.087
301.128
301.17
301.213
301.257
301.302
301.349
301.397
301.447
301.497
301.549
301.603
301.658
301.715
301.773
301.833
301.894
301.958
302.022
302.088
302.156
302.224
302.293
302.363
302.432
302.499
300.003
300.009
300.016
300.023
300.03
300.037
300.045
300.053
300.062
300.071
300.08
300.089
300.099
300.11
300.121
300.132
300.144
300.156
300.168
300.182
300.195
300.209
300.224
300.239
300.255
300.271
300.288
300.305
300.324
300.342
300.361
300.381
300.402
300.423
300.445
300.467
300.491
300.515
300.539
300.565
300.591
300.618
300.645
300.674
300.703
300.733
300.764
300.796
300.829
300.862
300.897
300.932
300.968
301.006
301.044
301.084
301.124
301.166
301.208
301.252
301.297
301.343
301.39
301.439
301.489
301.54
301.592
301.646
301.701
301.758
301.815
301.874
301.935
301.996
302.059
302.122
302.186
302.25
302.314
302.377
302.439
300.003
300.009
300.016
300.023
300.03
300.037
300.045
300.053
300.062
300.071
300.08
300.089
300.099
300.11
300.121
300.132
300.143
300.156
300.168
300.181
300.195
300.209
300.224
300.239
300.255
300.271
300.288
300.305
300.323
300.342
300.361
300.381
300.401
300.422
300.444
300.467
300.49
300.514
300.538
300.564
300.59
300.616
300.644
300.672
300.702
300.731
300.762
300.794
300.826
300.86
300.894
300.929
300.965
301.002
301.04
301.079
301.119
301.16
301.203
301.246
301.29
301.335
301.382
301.429
301.478
301.528
301.579
301.631
301.685
301.739
301.795
301.851
301.909
301.967
302.026
302.085
302.145
302.204
302.263
302.321
302.378
300.003
300.009
300.016
300.023
300.03
300.037
300.045
300.053
300.062
300.07
300.08
300.089
300.099
300.11
300.12
300.132
300.143
300.155
300.168
300.181
300.195
300.209
300.223
300.239
300.254
300.271
300.287
300.305
300.323
300.341
300.36
300.38
300.401
300.422
300.443
300.466
300.489
300.513
300.537
300.562
300.588
300.615
300.642
300.671
300.7
300.729
300.76
300.791
300.824
300.857
300.891
300.926
300.961
300.998
301.036
301.074
301.114
301.154
301.196
301.238
301.281
301.326
301.371
301.418
301.465
301.514
301.563
301.614
301.665
301.718
301.771
301.825
301.879
301.934
301.99
302.045
302.1
302.155
302.21
302.264
302.316
300.003
300.009
300.016
300.023
300.03
300.037
300.045
300.053
300.062
300.07
300.08
300.089
300.099
300.109
300.12
300.131
300.143
300.155
300.168
300.181
300.195
300.209
300.223
300.238
300.254
300.27
300.287
300.304
300.322
300.341
300.36
300.38
300.4
300.421
300.443
300.465
300.488
300.512
300.536
300.561
300.587
300.613
300.641
300.669
300.697
300.727
300.757
300.788
300.82
300.853
300.887
300.921
300.957
300.993
301.03
301.068
301.107
301.147
301.187
301.229
301.271
301.315
301.359
301.404
301.451
301.498
301.545
301.594
301.643
301.693
301.744
301.795
301.847
301.898
301.95
302.002
302.054
302.105
302.156
302.205
302.254
300.003
300.009
300.016
300.023
300.03
300.037
300.045
300.053
300.062
300.07
300.079
300.089
300.099
300.109
300.12
300.131
300.143
300.155
300.168
300.181
300.194
300.208
300.223
300.238
300.254
300.27
300.286
300.304
300.322
300.34
300.359
300.379
300.399
300.42
300.441
300.464
300.487
300.51
300.534
300.559
300.585
300.611
300.638
300.666
300.695
300.724
300.754
300.785
300.816
300.849
300.882
300.916
300.951
300.987
301.023
301.061
301.099
301.138
301.178
301.218
301.26
301.302
301.345
301.389
301.433
301.479
301.525
301.571
301.619
301.666
301.714
301.763
301.811
301.86
301.909
301.957
302.005
302.053
302.1
302.146
302.192
300.003
300.009
300.016
300.023
300.03
300.037
300.045
300.053
300.061
300.07
300.079
300.089
300.099
300.109
300.12
300.131
300.143
300.155
300.167
300.18
300.194
300.208
300.222
300.237
300.253
300.269
300.286
300.303
300.321
300.339
300.358
300.378
300.398
300.419
300.44
300.462
300.485
300.508
300.532
300.557
300.583
300.609
300.635
300.663
300.691
300.72
300.75
300.781
300.812
300.844
300.877
300.91
300.944
300.979
301.015
301.052
301.089
301.127
301.166
301.206
301.246
301.287
301.329
301.371
301.414
301.458
301.502
301.546
301.591
301.636
301.682
301.728
301.773
301.819
301.865
301.91
301.955
301.999
302.043
302.086
302.129
300.003
300.009
300.016
300.023
300.03
300.037
300.045
300.053
300.061
300.07
300.079
300.089
300.099
300.109
300.12
300.131
300.142
300.154
300.167
300.18
300.193
300.207
300.222
300.237
300.252
300.268
300.285
300.302
300.32
300.338
300.357
300.376
300.396
300.417
300.438
300.46
300.483
300.506
300.53
300.555
300.58
300.606
300.632
300.659
300.687
300.716
300.745
300.775
300.806
300.838
300.87
300.903
300.936
300.971
301.006
301.042
301.078
301.115
301.153
301.191
301.23
301.27
301.31
301.351
301.392
301.434
301.476
301.519
301.561
301.604
301.647
301.69
301.733
301.776
301.819
301.861
301.903
301.945
301.985
302.026
302.065
300.003
300.009
300.016
300.023
300.03
300.037
300.045
300.053
300.061
300.07
300.079
300.089
300.098
300.109
300.119
300.13
300.142
300.154
300.167
300.179
300.193
300.207
300.221
300.236
300.252
300.267
300.284
300.301
300.319
300.337
300.356
300.375
300.395
300.415
300.437
300.458
300.481
300.504
300.527
300.552
300.577
300.602
300.628
300.655
300.683
300.711
300.74
300.77
300.8
300.831
300.862
300.895
300.927
300.961
300.995
301.03
301.065
301.101
301.138
301.175
301.213
301.251
301.29
301.329
301.368
301.408
301.448
301.488
301.529
301.569
301.61
301.65
301.691
301.731
301.771
301.811
301.85
301.888
301.927
301.964
302.001
300.003
300.009
300.016
300.023
300.03
300.037
300.045
300.053
300.061
300.07
300.079
300.088
300.098
300.108
300.119
300.13
300.142
300.154
300.166
300.179
300.192
300.206
300.22
300.235
300.251
300.266
300.283
300.3
300.317
300.335
300.354
300.373
300.393
300.413
300.434
300.456
300.478
300.501
300.524
300.548
300.573
300.598
300.624
300.65
300.677
300.705
300.734
300.763
300.792
300.823
300.853
300.885
300.917
300.95
300.983
301.017
301.051
301.086
301.121
301.157
301.193
301.23
301.267
301.304
301.342
301.38
301.418
301.456
301.494
301.532
301.571
301.609
301.647
301.684
301.722
301.759
301.795
301.831
301.867
301.902
301.936
300.003
300.009
300.016
300.022
300.03
300.037
300.045
300.053
300.061
300.07
300.079
300.088
300.098
300.108
300.119
300.13
300.141
300.153
300.165
300.178
300.191
300.205
300.219
300.234
300.249
300.265
300.282
300.298
300.316
300.334
300.352
300.371
300.391
300.411
300.432
300.453
300.475
300.497
300.52
300.544
300.568
300.593
300.619
300.645
300.671
300.698
300.726
300.755
300.784
300.813
300.843
300.874
300.905
300.937
300.969
301.002
301.035
301.069
301.103
301.137
301.172
301.207
301.242
301.278
301.313
301.349
301.385
301.421
301.457
301.493
301.529
301.565
301.601
301.636
301.671
301.705
301.739
301.773
301.806
301.839
301.871
300.003
300.009
300.016
300.022
300.029
300.037
300.044
300.052
300.061
300.069
300.078
300.088
300.097
300.108
300.118
300.129
300.141
300.152
300.165
300.177
300.191
300.204
300.218
300.233
300.248
300.264
300.28
300.297
300.314
300.332
300.35
300.369
300.388
300.408
300.428
300.449
300.471
300.493
300.516
300.539
300.563
300.588
300.612
300.638
300.664
300.691
300.718
300.746
300.774
300.803
300.832
300.862
300.892
300.923
300.954
300.985
301.017
301.049
301.082
301.115
301.148
301.182
301.215
301.249
301.283
301.317
301.351
301.385
301.419
301.453
301.486
301.52
301.553
301.586
301.619
301.651
301.683
301.714
301.745
301.776
301.806
300.003
300.009
300.016
300.022
300.029
300.037
300.044
300.052
300.06
300.069
300.078
300.087
300.097
300.107
300.118
300.128
300.14
300.152
300.164
300.176
300.19
300.203
300.217
300.232
300.247
300.262
300.278
300.295
300.312
300.329
300.347
300.366
300.385
300.405
300.425
300.446
300.467
300.489
300.511
300.534
300.557
300.581
300.606
300.631
300.656
300.682
300.709
300.735
300.763
300.791
300.819
300.848
300.877
300.907
300.937
300.967
300.998
301.029
301.06
301.091
301.123
301.155
301.186
301.218
301.25
301.283
301.315
301.347
301.378
301.41
301.442
301.473
301.504
301.535
301.566
301.596
301.626
301.655
301.684
301.712
301.74
300.003
300.009
300.016
300.022
300.029
300.036
300.044
300.052
300.06
300.069
300.078
300.087
300.096
300.106
300.117
300.128
300.139
300.151
300.163
300.175
300.188
300.202
300.216
300.23
300.245
300.26
300.276
300.292
300.309
300.327
300.344
300.363
300.382
300.401
300.421
300.441
300.462
300.483
300.505
300.528
300.551
300.574
300.598
300.622
300.647
300.672
300.698
300.724
300.751
300.778
300.805
300.833
300.861
300.889
300.918
300.947
300.976
301.006
301.036
301.065
301.095
301.126
301.156
301.186
301.216
301.246
301.277
301.307
301.337
301.366
301.396
301.425
301.454
301.483
301.512
301.54
301.568
301.595
301.622
301.649
301.675
300.003
300.009
300.015
300.022
300.029
300.036
300.044
300.052
300.06
300.068
300.077
300.086
300.096
300.106
300.116
300.127
300.138
300.15
300.162
300.174
300.187
300.2
300.214
300.228
300.243
300.258
300.274
300.29
300.306
300.323
300.341
300.359
300.378
300.397
300.416
300.436
300.456
300.477
300.499
300.521
300.543
300.566
300.589
300.613
300.637
300.661
300.686
300.711
300.737
300.763
300.789
300.816
300.843
300.87
300.898
300.925
300.953
300.981
301.01
301.038
301.066
301.095
301.123
301.152
301.18
301.209
301.237
301.265
301.293
301.321
301.349
301.376
301.403
301.43
301.457
301.483
301.509
301.535
301.56
301.585
301.609
300.003
300.009
300.015
300.022
300.029
300.036
300.043
300.051
300.059
300.068
300.076
300.086
300.095
300.105
300.115
300.126
300.137
300.148
300.16
300.173
300.185
300.198
300.212
300.226
300.241
300.256
300.271
300.287
300.303
300.32
300.337
300.355
300.373
300.392
300.411
300.43
300.45
300.471
300.491
300.513
300.534
300.557
300.579
300.602
300.625
300.649
300.673
300.697
300.722
300.747
300.772
300.798
300.824
300.85
300.876
300.902
300.929
300.955
300.982
301.009
301.036
301.063
301.09
301.116
301.143
301.17
301.196
301.223
301.249
301.275
301.301
301.326
301.352
301.377
301.402
301.426
301.45
301.474
301.498
301.521
301.544
300.003
300.009
300.015
300.022
300.029
300.036
300.043
300.051
300.059
300.067
300.076
300.085
300.094
300.104
300.114
300.125
300.136
300.147
300.159
300.171
300.183
300.196
300.21
300.224
300.238
300.253
300.268
300.283
300.299
300.316
300.333
300.35
300.368
300.386
300.405
300.424
300.443
300.463
300.483
300.504
300.525
300.547
300.568
300.59
300.613
300.636
300.659
300.682
300.706
300.73
300.754
300.778
300.803
300.828
300.853
300.878
300.903
300.928
300.953
300.979
301.004
301.029
301.054
301.08
301.105
301.13
301.154
301.179
301.204
301.228
301.252
301.276
301.3
301.323
301.346
301.369
301.391
301.414
301.436
301.457
301.478
300.003
300.009
300.015
300.022
300.028
300.035
300.043
300.05
300.058
300.067
300.075
300.084
300.093
300.103
300.113
300.124
300.134
300.146
300.157
300.169
300.181
300.194
300.207
300.221
300.235
300.249
300.264
300.28
300.295
300.311
300.328
300.345
300.362
300.38
300.398
300.417
300.435
300.455
300.474
300.494
300.515
300.535
300.556
300.578
300.599
300.621
300.643
300.666
300.688
300.711
300.734
300.758
300.781
300.804
300.828
300.852
300.875
300.899
300.923
300.947
300.971
300.994
301.018
301.042
301.065
301.088
301.112
301.135
301.158
301.18
301.203
301.225
301.247
301.269
301.29
301.312
301.333
301.353
301.374
301.394
301.414
300.003
300.009
300.015
300.021
300.028
300.035
300.042
300.05
300.058
300.066
300.074
300.083
300.092
300.102
300.112
300.122
300.133
300.144
300.155
300.167
300.179
300.192
300.205
300.218
300.232
300.246
300.26
300.275
300.291
300.306
300.322
300.339
300.356
300.373
300.391
300.409
300.427
300.446
300.464
300.484
300.503
300.523
300.544
300.564
300.585
300.606
300.627
300.648
300.67
300.692
300.713
300.735
300.758
300.78
300.802
300.824
300.847
300.869
300.892
300.914
300.936
300.959
300.981
301.003
301.025
301.047
301.068
301.09
301.111
301.132
301.153
301.174
301.194
301.215
301.235
301.255
301.274
301.293
301.312
301.331
301.349
300.003
300.009
300.015
300.021
300.028
300.035
300.042
300.049
300.057
300.065
300.073
300.082
300.091
300.101
300.11
300.12
300.131
300.142
300.153
300.164
300.176
300.189
300.201
300.214
300.228
300.242
300.256
300.27
300.285
300.301
300.316
300.332
300.349
300.365
300.382
300.4
300.418
300.435
300.454
300.472
300.491
300.51
300.53
300.549
300.569
300.589
300.609
300.629
300.65
300.671
300.691
300.712
300.733
300.754
300.775
300.796
300.817
300.838
300.859
300.88
300.901
300.922
300.943
300.963
300.984
301.004
301.024
301.044
301.064
301.084
301.103
301.123
301.142
301.161
301.179
301.198
301.216
301.234
301.251
301.269
301.286
300.003
300.009
300.015
300.021
300.027
300.034
300.041
300.049
300.056
300.064
300.072
300.081
300.09
300.099
300.109
300.119
300.129
300.14
300.15
300.162
300.173
300.186
300.198
300.211
300.224
300.237
300.251
300.265
300.28
300.295
300.31
300.325
300.341
300.357
300.374
300.39
300.407
300.425
300.442
300.46
300.478
300.496
300.515
300.533
300.552
300.571
300.59
300.61
300.629
300.649
300.668
300.688
300.708
300.727
300.747
300.767
300.787
300.806
300.826
300.846
300.865
300.885
300.904
300.923
300.942
300.961
300.98
300.999
301.017
301.036
301.054
301.072
301.09
301.107
301.124
301.142
301.158
301.175
301.191
301.208
301.224
300.003
300.008
300.014
300.021
300.027
300.034
300.041
300.048
300.055
300.063
300.071
300.08
300.088
300.098
300.107
300.117
300.127
300.137
300.148
300.159
300.17
300.182
300.194
300.206
300.219
300.232
300.246
300.259
300.274
300.288
300.303
300.318
300.333
300.348
300.364
300.38
300.397
300.413
300.43
300.447
300.464
300.482
300.499
300.517
300.535
300.553
300.571
300.589
300.608
300.626
300.644
300.663
300.681
300.7
300.719
300.737
300.756
300.774
300.793
300.811
300.829
300.847
300.865
300.883
300.901
300.919
300.936
300.954
300.971
300.988
301.005
301.021
301.038
301.054
301.07
301.086
301.102
301.117
301.132
301.147
301.162
300.003
300.008
300.014
300.02
300.026
300.033
300.04
300.047
300.054
300.062
300.07
300.078
300.087
300.096
300.105
300.114
300.124
300.134
300.145
300.156
300.167
300.178
300.19
300.202
300.214
300.227
300.24
300.253
300.267
300.281
300.295
300.309
300.324
300.339
300.354
300.369
300.385
300.401
300.417
300.433
300.449
300.466
300.483
300.5
300.516
300.534
300.551
300.568
300.585
300.603
300.62
300.637
300.655
300.672
300.689
300.707
300.724
300.741
300.759
300.776
300.793
300.81
300.826
300.843
300.86
300.876
300.892
300.909
300.925
300.94
300.956
300.971
300.987
301.002
301.017
301.032
301.046
301.06
301.075
301.088
301.102
300.003
300.008
300.014
300.02
300.026
300.032
300.039
300.046
300.053
300.061
300.069
300.077
300.085
300.094
300.103
300.112
300.122
300.131
300.142
300.152
300.163
300.174
300.185
300.197
300.209
300.221
300.234
300.247
300.26
300.273
300.287
300.3
300.314
300.329
300.343
300.358
300.373
300.388
300.403
300.419
300.434
300.45
300.466
300.482
300.498
300.514
300.53
300.546
300.562
300.579
300.595
300.611
300.628
300.644
300.66
300.676
300.693
300.709
300.725
300.741
300.756
300.772
300.788
300.803
300.819
300.834
300.849
300.864
300.879
300.894
300.908
300.923
300.937
300.951
300.965
300.978
300.992
301.005
301.018
301.031
301.044
300.003
300.008
300.014
300.019
300.025
300.032
300.038
300.045
300.052
300.06
300.067
300.075
300.083
300.092
300.1
300.109
300.119
300.128
300.138
300.148
300.159
300.17
300.181
300.192
300.203
300.215
300.227
300.24
300.252
300.265
300.278
300.291
300.305
300.318
300.332
300.346
300.36
300.375
300.389
300.404
300.418
300.433
300.448
300.463
300.478
300.494
300.509
300.524
300.539
300.555
300.57
300.585
300.6
300.616
300.631
300.646
300.661
300.676
300.691
300.706
300.721
300.735
300.75
300.764
300.779
300.793
300.807
300.821
300.834
300.848
300.862
300.875
300.888
300.901
300.914
300.927
300.939
300.951
300.964
300.976
300.987
300.003
300.008
300.013
300.019
300.025
300.031
300.037
300.044
300.051
300.058
300.066
300.073
300.081
300.089
300.098
300.107
300.116
300.125
300.135
300.144
300.155
300.165
300.175
300.186
300.197
300.209
300.22
300.232
300.244
300.256
300.269
300.282
300.294
300.307
300.321
300.334
300.347
300.361
300.375
300.389
300.402
300.416
300.431
300.445
300.459
300.473
300.487
300.502
300.516
300.53
300.545
300.559
300.573
300.588
300.602
300.616
300.63
300.644
300.658
300.672
300.685
300.699
300.713
300.726
300.739
300.752
300.765
300.778
300.791
300.804
300.816
300.829
300.841
300.853
300.865
300.877
300.888
300.9
300.911
300.922
300.933
300.003
300.008
300.013
300.019
300.024
300.03
300.037
300.043
300.05
300.057
300.064
300.071
300.079
300.087
300.095
300.104
300.113
300.122
300.131
300.14
300.15
300.16
300.17
300.181
300.191
300.202
300.213
300.225
300.236
300.248
300.26
300.272
300.284
300.296
300.309
300.322
300.334
300.347
300.36
300.373
300.386
300.4
300.413
300.426
300.44
300.453
300.466
300.48
300.493
300.507
300.52
300.533
300.547
300.56
300.573
300.587
300.6
300.613
300.626
300.638
300.651
300.664
300.677
300.689
300.701
300.714
300.726
300.738
300.75
300.761
300.773
300.784
300.796
300.807
300.818
300.829
300.84
300.85
300.861
300.871
300.881
300.002
300.007
300.013
300.018
300.024
300.029
300.036
300.042
300.048
300.055
300.062
300.069
300.077
300.085
300.093
300.101
300.109
300.118
300.127
300.136
300.145
300.155
300.165
300.175
300.185
300.196
300.206
300.217
300.228
300.239
300.25
300.262
300.274
300.285
300.297
300.309
300.321
300.333
300.346
300.358
300.371
300.383
300.395
300.408
300.421
300.433
300.446
300.458
300.471
300.484
300.496
300.509
300.521
300.534
300.546
300.558
300.57
300.583
300.595
300.607
300.619
300.63
300.642
300.654
300.665
300.676
300.688
300.699
300.71
300.721
300.732
300.742
300.753
300.763
300.773
300.783
300.793
300.803
300.813
300.823
300.832
300.002
300.007
300.012
300.018
300.023
300.029
300.035
300.041
300.047
300.054
300.06
300.067
300.075
300.082
300.09
300.098
300.106
300.114
300.123
300.132
300.141
300.15
300.159
300.169
300.179
300.189
300.199
300.209
300.22
300.231
300.241
300.252
300.263
300.275
300.286
300.297
300.309
300.32
300.332
300.343
300.355
300.367
300.379
300.391
300.402
300.414
300.426
300.438
300.45
300.461
300.473
300.485
300.497
300.508
300.52
300.531
300.543
300.554
300.565
300.576
300.588
300.599
300.609
300.62
300.631
300.642
300.652
300.662
300.673
300.683
300.693
300.703
300.713
300.722
300.732
300.741
300.75
300.76
300.769
300.777
300.786
300.002
300.007
300.012
300.017
300.022
300.028
300.034
300.04
300.046
300.052
300.059
300.066
300.073
300.08
300.087
300.095
300.103
300.111
300.119
300.128
300.136
300.145
300.154
300.164
300.173
300.183
300.192
300.202
300.212
300.222
300.233
300.243
300.254
300.264
300.275
300.286
300.297
300.307
300.318
300.329
300.341
300.352
300.363
300.374
300.385
300.396
300.407
300.419
300.43
300.441
300.452
300.463
300.474
300.485
300.495
300.506
300.517
300.528
300.538
300.549
300.559
300.569
300.579
300.589
300.599
300.609
300.619
300.629
300.638
300.648
300.657
300.666
300.676
300.685
300.693
300.702
300.711
300.719
300.728
300.736
300.744
300.002
300.007
300.012
300.017
300.022
300.027
300.033
300.038
300.044
300.051
300.057
300.064
300.07
300.077
300.085
300.092
300.1
300.108
300.116
300.124
300.132
300.141
300.149
300.158
300.167
300.176
300.186
300.195
300.205
300.215
300.224
300.234
300.244
300.255
300.265
300.275
300.285
300.296
300.306
300.317
300.327
300.338
300.348
300.359
300.369
300.38
300.39
300.401
300.411
300.422
300.432
300.443
300.453
300.463
300.473
300.484
300.494
300.504
300.514
300.523
300.533
300.543
300.552
300.562
300.571
300.58
300.59
300.599
300.608
300.617
300.625
300.634
300.643
300.651
300.659
300.668
300.676
300.684
300.691
300.699
300.707
300.002
300.007
300.011
300.016
300.021
300.026
300.032
300.037
300.043
300.049
300.056
300.062
300.069
300.075
300.082
300.09
300.097
300.105
300.112
300.12
300.128
300.137
300.145
300.154
300.162
300.171
300.18
300.189
300.198
300.208
300.217
300.227
300.236
300.246
300.256
300.266
300.276
300.285
300.295
300.305
300.315
300.325
300.335
300.346
300.356
300.366
300.376
300.386
300.396
300.405
300.415
300.425
300.435
300.445
300.454
300.464
300.473
300.483
300.492
300.502
300.511
300.52
300.529
300.538
300.547
300.556
300.564
300.573
300.581
300.59
300.598
300.606
300.614
300.622
300.63
300.638
300.645
300.653
300.66
300.668
300.675
300.002
300.007
300.011
300.016
300.021
300.026
300.031
300.037
300.042
300.048
300.054
300.061
300.067
300.074
300.08
300.087
300.095
300.102
300.11
300.117
300.125
300.133
300.141
300.15
300.158
300.167
300.175
300.184
300.193
300.202
300.211
300.22
300.23
300.239
300.248
300.258
300.267
300.277
300.286
300.296
300.306
300.315
300.325
300.335
300.344
300.354
300.363
300.373
300.383
300.392
300.401
300.411
300.42
300.43
300.439
300.448
300.457
300.466
300.475
300.484
300.493
300.501
300.51
300.518
300.527
300.535
300.544
300.552
300.56
300.568
300.576
300.583
300.591
300.599
300.606
300.613
300.621
300.628
300.635
300.642
300.649
300.002
300.006
300.011
300.016
300.02
300.025
300.031
300.036
300.042
300.047
300.053
300.059
300.066
300.072
300.079
300.086
300.093
300.1
300.108
300.115
300.123
300.131
300.139
300.147
300.155
300.163
300.172
300.18
300.189
300.198
300.207
300.216
300.225
300.234
300.243
300.252
300.261
300.271
300.28
300.289
300.299
300.308
300.317
300.327
300.336
300.345
300.355
300.364
300.373
300.382
300.391
300.401
300.41
300.419
300.427
300.436
300.445
300.454
300.462
300.471
300.48
300.488
300.496
300.504
300.513
300.521
300.529
300.537
300.544
300.552
300.56
300.567
300.574
300.582
300.589
300.596
300.603
300.61
300.617
300.624
300.63
300.002
300.006
300.011
300.015
300.02
300.025
300.03
300.036
300.041
300.047
300.053
300.059
300.065
300.072
300.078
300.085
300.092
300.099
300.106
300.114
300.121
300.129
300.137
300.145
300.153
300.161
300.17
300.178
300.187
300.196
300.204
300.213
300.222
300.231
300.24
300.249
300.258
300.267
300.276
300.286
300.295
300.304
300.313
300.322
300.332
300.341
300.35
300.359
300.368
300.377
300.386
300.395
300.404
300.413
300.421
300.43
300.439
300.447
300.456
300.464
300.472
300.481
300.489
300.497
300.505
300.513
300.521
300.528
300.536
300.543
300.551
300.558
300.566
300.573
300.58
300.587
300.594
300.6
300.607
300.614
300.62
303.028
303.157
303.235
303.307
303.371
303.423
303.458
303.498
303.538
303.575
303.606
303.641
303.676
303.71
303.744
303.777
303.808
303.836
303.865
303.895
303.924
303.954
303.983
304.012
304.042
304.07
304.098
304.126
304.154
304.181
304.208
304.235
304.261
304.287
304.313
304.339
304.364
304.39
304.414
304.439
304.464
304.487
304.513
304.54
304.566
304.591
304.614
304.639
304.665
304.69
304.714
304.736
304.759
304.784
304.809
304.834
304.859
304.884
304.909
304.932
304.952
304.974
304.997
305.02
305.044
305.068
305.091
305.114
305.138
305.16
305.183
305.205
305.227
305.249
305.27
305.292
305.313
305.334
305.354
305.377
305.402
305.424
305.445
305.465
305.484
305.502
305.522
305.545
305.566
305.584
305.601
305.621
305.642
305.66
305.68
305.701
305.721
305.737
305.757
305.775
305.79
305.808
305.823
305.84
305.858
305.877
305.893
305.906
305.921
305.934
305.948
305.964
305.979
305.995
306.009
306.019
306.032
306.045
306.058
306.069
306.078
306.088
306.098
306.108
306.117
306.123
306.13
306.137
306.143
306.148
306.152
306.156
306.158
306.159
306.158
306.157
306.154
306.149
306.143
306.136
306.127
306.116
306.103
306.088
306.071
306.052
306.03
306.006
305.978
305.945
305.905
305.864
305.823
305.776
305.724
305.664
305.599
305.489
305.389
305.263
305.1
302.927
303.041
303.129
303.205
303.27
303.325
303.372
303.416
303.457
303.497
303.533
303.57
303.606
303.641
303.676
303.709
303.741
303.772
303.803
303.833
303.863
303.894
303.924
303.953
303.983
304.012
304.04
304.069
304.097
304.124
304.152
304.179
304.206
304.233
304.259
304.285
304.311
304.337
304.362
304.387
304.412
304.437
304.462
304.489
304.515
304.54
304.564
304.589
304.615
304.64
304.664
304.687
304.712
304.736
304.761
304.786
304.811
304.836
304.861
304.884
304.906
304.928
304.951
304.975
304.999
305.022
305.046
305.069
305.092
305.115
305.138
305.16
305.183
305.205
305.226
305.248
305.27
305.291
305.312
305.335
305.359
305.381
305.402
305.423
305.442
305.461
305.482
305.504
305.525
305.544
305.562
305.581
305.602
305.621
305.641
305.662
305.681
305.699
305.718
305.736
305.752
305.769
305.785
305.802
305.82
305.838
305.855
305.869
305.884
305.897
305.912
305.927
305.943
305.958
305.972
305.983
305.996
306.009
306.022
306.033
306.043
306.053
306.063
306.073
306.081
306.088
306.095
306.102
306.108
306.114
306.118
306.121
306.123
306.124
306.124
306.123
306.12
306.115
306.109
306.102
306.093
306.082
306.069
306.054
306.037
306.018
305.996
305.971
305.943
305.91
305.871
305.83
305.787
305.739
305.685
305.624
305.554
305.448
305.342
305.21
305.031
302.845
302.944
303.03
303.106
303.173
303.231
303.283
303.33
303.375
303.417
303.456
303.495
303.532
303.569
303.604
303.639
303.672
303.704
303.736
303.768
303.799
303.829
303.86
303.89
303.92
303.95
303.979
304.008
304.036
304.065
304.093
304.12
304.147
304.174
304.201
304.228
304.254
304.28
304.306
304.332
304.357
304.383
304.408
304.435