/*--------------------------------*- C++ -*----------------------------------*\
| =========                 |                                                 |
| \\      /  F ield         | OpenFOAM: The Open Source CFD Toolbox           |
|  \\    /   O peration     | Version:  2106                                  |
|   \\  /    A nd           | Website:  www.openfoam.com                      |
|    \\/     M anipulation  |                                                 |
\*---------------------------------------------------------------------------*/
FoamFile
{
    version     2.0;
    format      ascii;
    arch        "LSB;label=32;scalar=64";
    class       volVectorField;
    location    "5";
    object      U;
}
// * * * * * * * * * * * * * * * * * * * * * * * * * * * * * * * * * * * * * //

dimensions      [0 1 -1 0 0 0 0];

internalField   nonuniform List<vector> 
12013
(
(0.100034 -9.42165e-06 0)
(0.100172 -1.7416e-05 0)
(0.100396 -2.48259e-05 0)
(0.100685 -3.16576e-05 0)
(0.101034 -3.80782e-05 0)
(0.101438 -4.41825e-05 0)
(0.10189 -5.00321e-05 0)
(0.102387 -5.56753e-05 0)
(0.102924 -6.11493e-05 0)
(0.1035 -6.64836e-05 0)
(0.104111 -7.17002e-05 0)
(0.104755 -7.68186e-05 0)
(0.105428 -8.18532e-05 0)
(0.10613 -8.68163e-05 0)
(0.106859 -9.17174e-05 0)
(0.107611 -9.65639e-05 0)
(0.108387 -0.000101362 0)
(0.109183 -0.000106116 0)
(0.11 -0.000110828 0)
(0.110835 -0.000115501 0)
(0.111687 -0.000120136 0)
(0.112555 -0.000124733 0)
(0.113438 -0.00012929 0)
(0.114334 -0.000133806 0)
(0.115242 -0.000138279 0)
(0.116162 -0.000142705 0)
(0.117092 -0.000147081 0)
(0.118031 -0.000151402 0)
(0.118977 -0.000155663 0)
(0.119931 -0.000159859 0)
(0.120891 -0.000163982 0)
(0.121855 -0.000168026 0)
(0.122824 -0.000171982 0)
(0.123795 -0.000175842 0)
(0.124768 -0.000179597 0)
(0.125741 -0.000183236 0)
(0.126715 -0.000186746 0)
(0.127687 -0.000190117 0)
(0.128657 -0.000193334 0)
(0.129624 -0.000196382 0)
(0.130586 -0.000199245 0)
(0.131543 -0.000201903 0)
(0.132493 -0.000204337 0)
(0.133435 -0.000206523 0)
(0.134368 -0.000208438 0)
(0.135291 -0.000210052 0)
(0.136203 -0.000211334 0)
(0.137102 -0.000212247 0)
(0.137987 -0.000212752 0)
(0.138856 -0.000212802 0)
(0.139708 -0.000212344 0)
(0.140541 -0.000211318 0)
(0.141353 -0.000209652 0)
(0.142142 -0.000207266 0)
(0.142907 -0.000204064 0)
(0.143645 -0.000199933 0)
(0.144353 -0.000194741 0)
(0.145028 -0.000188328 0)
(0.145668 -0.000180504 0)
(0.146267 -0.000171037 0)
(0.146823 -0.000159646 0)
(0.14733 -0.000145981 0)
(0.147782 -0.000129609 0)
(0.148173 -0.000109981 0)
(0.148494 -8.6401e-05 0)
(0.148735 -5.79656e-05 0)
(0.148885 -2.34929e-05 0)
(0.148929 1.85969e-05 0)
(0.148847 7.04982e-05 0)
(0.148616 0.000135284 0)
(0.148204 0.000217343 0)
(0.147568 0.000323128 0)
(0.146649 0.000462418 0)
(0.145366 0.000650509 0)
(0.143599 0.000912148 0)
(0.141168 0.00128875 0)
(0.137798 0.00185212 0)
(0.133028 0.00273433 0)
(0.126098 0.00421899 0)
(0.115966 0.00713523 0)
(0.104345 0.0153583 0)
(0.100031 -2.87679e-05 0)
(0.100169 -5.33974e-05 0)
(0.100392 -7.61551e-05 0)
(0.10068 -9.71217e-05 0)
(0.101029 -0.000116827 0)
(0.101431 -0.00013556 0)
(0.101882 -0.000153509 0)
(0.102378 -0.000170824 0)
(0.102915 -0.000187619 0)
(0.10349 -0.000203983 0)
(0.1041 -0.000219986 0)
(0.104743 -0.000235686 0)
(0.105415 -0.000251129 0)
(0.106116 -0.000266351 0)
(0.106843 -0.000281381 0)
(0.107595 -0.000296245 0)
(0.108369 -0.000310957 0)
(0.109164 -0.000325533 0)
(0.10998 -0.000339982 0)
(0.110813 -0.00035431 0)
(0.111664 -0.00036852 0)
(0.112531 -0.00038261 0)
(0.113412 -0.00039658 0)
(0.114306 -0.000410422 0)
(0.115213 -0.000424131 0)
(0.116131 -0.000437696 0)
(0.117059 -0.000451106 0)
(0.117996 -0.000464347 0)
(0.118941 -0.000477403 0)
(0.119893 -0.000490256 0)
(0.120851 -0.000502887 0)
(0.121813 -0.000515274 0)
(0.12278 -0.000527392 0)
(0.123749 -0.000539214 0)
(0.124719 -0.000550712 0)
(0.125691 -0.000561852 0)
(0.126662 -0.000572601 0)
(0.127632 -0.00058292 0)
(0.1286 -0.000592766 0)
(0.129564 -0.000602093 0)
(0.130524 -0.000610851 0)
(0.131478 -0.000618982 0)
(0.132425 -0.000626425 0)
(0.133365 -0.00063311 0)
(0.134295 -0.00063896 0)
(0.135216 -0.00064389 0)
(0.136125 -0.000647801 0)
(0.137021 -0.000650584 0)
(0.137903 -0.000652115 0)
(0.138769 -0.000652254 0)
(0.139618 -0.000650838 0)
(0.140448 -0.000647683 0)
(0.141258 -0.000642573 0)
(0.142045 -0.00063526 0)
(0.142807 -0.000625453 0)
(0.143542 -0.000612809 0)
(0.144248 -0.000596924 0)
(0.144921 -0.000577315 0)
(0.145558 -0.000553403 0)
(0.146157 -0.000524488 0)
(0.146711 -0.000489712 0)
(0.147218 -0.000448024 0)
(0.147671 -0.000398112 0)
(0.148064 -0.000338328 0)
(0.148388 -0.000266575 0)
(0.148635 -0.000180151 0)
(0.148794 -7.55277e-05 0)
(0.14885 5.19773e-05 0)
(0.148787 0.000208772 0)
(0.148582 0.000403763 0)
(0.148209 0.000649545 0)
(0.14763 0.000964369 0)
(0.146799 0.00137537 0)
(0.145651 0.00192397 0)
(0.1441 0.00267502 0)
(0.142029 0.00373243 0)
(0.13928 0.00526502 0)
(0.135635 0.007549 0)
(0.130832 0.0110387 0)
(0.124888 0.0163925 0)
(0.119992 0.0239162 0)
(0.100029 -4.88996e-05 0)
(0.100165 -9.15925e-05 0)
(0.100386 -0.000130788 0)
(0.100672 -0.000166887 0)
(0.101019 -0.000200807 0)
(0.101419 -0.000233046 0)
(0.101869 -0.000263932 0)
(0.102363 -0.000293722 0)
(0.102898 -0.000322615 0)
(0.103471 -0.000350764 0)
(0.104079 -0.000378291 0)
(0.104719 -0.000405293 0)
(0.10539 -0.000431851 0)
(0.106088 -0.000458026 0)
(0.106813 -0.000483871 0)
(0.107562 -0.000509425 0)
(0.108334 -0.000534719 0)
(0.109127 -0.000559777 0)
(0.10994 -0.000584613 0)
(0.11077 -0.000609239 0)
(0.111618 -0.000633659 0)
(0.112482 -0.000657873 0)
(0.11336 -0.000681876 0)
(0.114252 -0.000705659 0)
(0.115155 -0.00072921 0)
(0.11607 -0.000752511 0)
(0.116994 -0.000775543 0)
(0.117928 -0.000798282 0)
(0.118869 -0.0008207 0)
(0.119817 -0.000842767 0)
(0.120771 -0.00086445 0)
(0.121729 -0.00088571 0)
(0.122691 -0.000906504 0)
(0.123656 -0.000926787 0)
(0.124623 -0.00094651 0)
(0.12559 -0.000965616 0)
(0.126556 -0.000984045 0)
(0.127521 -0.00100173 0)
(0.128484 -0.0010186 0)
(0.129443 -0.00103458 0)
(0.130398 -0.00104957 0)
(0.131347 -0.00106349 0)
(0.132289 -0.00107622 0)
(0.133223 -0.00108765 0)
(0.134148 -0.00109764 0)
(0.135063 -0.00110604 0)
(0.135966 -0.0011127 0)
(0.136857 -0.00111742 0)
(0.137733 -0.00111998 0)
(0.138593 -0.00112016 0)
(0.139436 -0.00111768 0)
(0.140261 -0.00111221 0)
(0.141065 -0.0011034 0)
(0.141846 -0.00109083 0)
(0.142603 -0.00107399 0)
(0.143333 -0.00105231 0)
(0.144033 -0.00102511 0)
(0.144702 -0.000991578 0)
(0.145336 -0.000950736 0)
(0.145931 -0.000901412 0)
(0.146483 -0.000842178 0)
(0.146989 -0.000771282 0)
(0.147442 -0.000686555 0)
(0.147837 -0.000585282 0)
(0.148167 -0.000464029 0)
(0.148424 -0.000318407 0)
(0.148597 -0.000142731 0)
(0.148674 7.04511e-05 0)
(0.148642 0.000331138 0)
(0.148483 0.000652994 0)
(0.148175 0.00105492 0)
(0.147693 0.00156355 0)
(0.147004 0.00221703 0)
(0.146071 0.00307095 0)
(0.144851 0.0042073 0)
(0.1433 0.00574762 0)
(0.141384 0.00786989 0)
(0.139109 0.0108248 0)
(0.13658 0.014935 0)
(0.134207 0.0204644 0)
(0.133198 0.0268626 0)
(0.100026 -6.96429e-05 0)
(0.10016 -0.000131894 0)
(0.100377 -0.00018866 0)
(0.100661 -0.00024097 0)
(0.101005 -0.0002901 0)
(0.101403 -0.000336781 0)
(0.101849 -0.000381491 0)
(0.10234 -0.000424609 0)
(0.102873 -0.00046642 0)
(0.103443 -0.000507149 0)
(0.104047 -0.000546971 0)
(0.104685 -0.00058603 0)
(0.105352 -0.000624441 0)
(0.106047 -0.000662294 0)
(0.106768 -0.000699665 0)
(0.107514 -0.00073661 0)
(0.108281 -0.000773175 0)
(0.10907 -0.000809393 0)
(0.109879 -0.000845288 0)
(0.110706 -0.000880873 0)
(0.111549 -0.000916156 0)
(0.112408 -0.000951136 0)
(0.113282 -0.000985806 0)
(0.114168 -0.00102015 0)
(0.115067 -0.00105416 0)
(0.115976 -0.0010878 0)
(0.116896 -0.00112104 0)
(0.117824 -0.00115386 0)
(0.118759 -0.00118621 0)
(0.119701 -0.00121804 0)
(0.120649 -0.00124931 0)
(0.121601 -0.00127997 0)
(0.122557 -0.00130994 0)
(0.123515 -0.00133917 0)
(0.124475 -0.00136759 0)
(0.125435 -0.0013951 0)
(0.126395 -0.00142163 0)
(0.127353 -0.00144708 0)
(0.128308 -0.00147135 0)
(0.12926 -0.00149432 0)
(0.130207 -0.00151586 0)
(0.131148 -0.00153584 0)
(0.132082 -0.00155409 0)
(0.133008 -0.00157046 0)
(0.133925 -0.00158475 0)
(0.134831 -0.00159675 0)
(0.135726 -0.00160622 0)
(0.136608 -0.0016129 0)
(0.137476 -0.00161647 0)
(0.138327 -0.0016166 0)
(0.139162 -0.0016129 0)
(0.139978 -0.00160491 0)
(0.140773 -0.00159212 0)
(0.141546 -0.00157393 0)
(0.142295 -0.00154965 0)
(0.143018 -0.00151845 0)
(0.143711 -0.00147938 0)
(0.144373 -0.00143129 0)
(0.145001 -0.00137284 0)
(0.145592 -0.00130239 0)
(0.146141 -0.00121797 0)
(0.146646 -0.00111717 0)
(0.1471 -0.000997025 0)
(0.1475 -0.00085387 0)
(0.147839 -0.000683095 0)
(0.14811 -0.000478873 0)
(0.148305 -0.00023376 0)
(0.148415 6.18406e-05 0)
(0.148428 0.000420447 0)
(0.148334 0.000858773 0)
(0.148119 0.00139925 0)
(0.147767 0.00207223 0)
(0.147265 0.00291916 0)
(0.146601 0.00399678 0)
(0.145771 0.00538255 0)
(0.144786 0.00718029 0)
(0.143693 0.00952274 0)
(0.142601 0.0125615 0)
(0.14172 0.0164209 0)
(0.141421 0.0210466 0)
(0.142226 0.0257824 0)
(0.100023 -9.10037e-05 0)
(0.100154 -0.000174226 0)
(0.100368 -0.000249733 0)
(0.100648 -0.000319389 0)
(0.100988 -0.000384786 0)
(0.101382 -0.000446897 0)
(0.101825 -0.00050637 0)
(0.102312 -0.000563711 0)
(0.10284 -0.000619302 0)
(0.103406 -0.000673443 0)
(0.104006 -0.000726369 0)
(0.104639 -0.000778272 0)
(0.105302 -0.000829303 0)
(0.105992 -0.000879586 0)
(0.106708 -0.000929218 0)
(0.107449 -0.000978278 0)
(0.108211 -0.00102682 0)
(0.108995 -0.0010749 0)
(0.109798 -0.00112254 0)
(0.110619 -0.00116976 0)
(0.111456 -0.00121657 0)
(0.112309 -0.00126297 0)
(0.113176 -0.00130894 0)
(0.114056 -0.00135448 0)
(0.114948 -0.00139956 0)
(0.115851 -0.00144414 0)
(0.116763 -0.00148819 0)
(0.117683 -0.00153166 0)
(0.118611 -0.0015745 0)
(0.119545 -0.00161664 0)
(0.120485 -0.00165803 0)
(0.121429 -0.00169858 0)
(0.122376 -0.00173823 0)
(0.123326 -0.00177687 0)
(0.124276 -0.00181442 0)
(0.125227 -0.00185076 0)
(0.126177 -0.00188579 0)
(0.127126 -0.00191937 0)
(0.128071 -0.00195137 0)
(0.129013 -0.00198163 0)
(0.129949 -0.00200999 0)
(0.13088 -0.00203627 0)
(0.131804 -0.00206025 0)
(0.132719 -0.00208172 0)
(0.133625 -0.00210043 0)
(0.13452 -0.0021161 0)
(0.135404 -0.00212842 0)
(0.136274 -0.00213703 0)
(0.137131 -0.00214154 0)
(0.137971 -0.0021415 0)
(0.138795 -0.0021364 0)
(0.1396 -0.00212567 0)
(0.140384 -0.00210862 0)
(0.141147 -0.00208449 0)
(0.141885 -0.00205239 0)
(0.142598 -0.00201126 0)
(0.143283 -0.00195988 0)
(0.143937 -0.00189681 0)
(0.144558 -0.00182034 0)
(0.145144 -0.00172841 0)
(0.14569 -0.00161858 0)
(0.146194 -0.00148786 0)
(0.146652 -0.00133264 0)
(0.147059 -0.00114846 0)
(0.147411 -0.000929827 0)
(0.147702 -0.000669872 0)
(0.147927 -0.000359983 0)
(0.14808 1.07103e-05 0)
(0.148154 0.000455875 0)
(0.148142 0.000993204 0)
(0.14804 0.00164555 0)
(0.147844 0.00244241 0)
(0.147554 0.00342164 0)
(0.147179 0.00463144 0)
(0.146739 0.00613171 0)
(0.146277 0.00799344 0)
(0.14587 0.0102926 0)
(0.145642 0.0130913 0)
(0.145778 0.0163915 0)
(0.146515 0.0200395 0)
(0.14806 0.0235614 0)
(0.100021 -0.00011299 0)
(0.100149 -0.000218516 0)
(0.100358 -0.000313961 0)
(0.100633 -0.000402133 0)
(0.100968 -0.000484901 0)
(0.101357 -0.000563482 0)
(0.101795 -0.000638705 0)
(0.102277 -0.000711209 0)
(0.1028 -0.000781484 0)
(0.103361 -0.000849907 0)
(0.103956 -0.00091678 0)
(0.104583 -0.000982344 0)
(0.105239 -0.00104679 0)
(0.105924 -0.00111028 0)
(0.106634 -0.00117294 0)
(0.107367 -0.00123485 0)
(0.108123 -0.00129611 0)
(0.1089 -0.00135676 0)
(0.109696 -0.00141684 0)
(0.110509 -0.00147638 0)
(0.111339 -0.00153539 0)
(0.112184 -0.00159387 0)
(0.113043 -0.0016518 0)
(0.113915 -0.00170916 0)
(0.114798 -0.00176593 0)
(0.115692 -0.00182205 0)
(0.116594 -0.00187749 0)
(0.117506 -0.00193217 0)
(0.118424 -0.00198605 0)
(0.119348 -0.00203903 0)
(0.120277 -0.00209104 0)
(0.121211 -0.00214199 0)
(0.122147 -0.00219177 0)
(0.123086 -0.00224027 0)
(0.124025 -0.00228737 0)
(0.124964 -0.00233293 0)
(0.125903 -0.00237681 0)
(0.126839 -0.00241886 0)
(0.127772 -0.00245888 0)
(0.128701 -0.00249671 0)
(0.129625 -0.00253212 0)
(0.130543 -0.00256489 0)
(0.131453 -0.00259476 0)
(0.132355 -0.00262146 0)
(0.133247 -0.00264466 0)
(0.134129 -0.00266403 0)
(0.134999 -0.00267918 0)
(0.135856 -0.00268968 0)
(0.136699 -0.00269503 0)
(0.137526 -0.00269469 0)
(0.138336 -0.00268803 0)
(0.139127 -0.00267433 0)
(0.139898 -0.00265279 0)
(0.140648 -0.00262246 0)
(0.141375 -0.00258227 0)
(0.142077 -0.00253095 0)
(0.142751 -0.00246705 0)
(0.143397 -0.00238885 0)
(0.144011 -0.00229432 0)
(0.144591 -0.00218109 0)
(0.145135 -0.00204631 0)
(0.14564 -0.00188656 0)
(0.146103 -0.00169776 0)
(0.146521 -0.00147494 0)
(0.14689 -0.00121205 0)
(0.147208 -0.000901738 0)
(0.147471 -0.000534933 0)
(0.147676 -0.000100521 0)
(0.147821 0.000415001 0)
(0.147904 0.00102825 0)
(0.147928 0.00175981 0)
(0.147897 0.00263477 0)
(0.147822 0.00368313 0)
(0.147724 0.00493982 0)
(0.147634 0.00644347 0)
(0.147604 0.00823287 0)
(0.147709 0.0103389 0)
(0.148051 0.0127682 0)
(0.148756 0.0154744 0)
(0.149955 0.018313 0)
(0.151715 0.0209917 0)
(0.100018 -0.000135612 0)
(0.100143 -0.000264704 0)
(0.100348 -0.000381296 0)
(0.100617 -0.00048917 0)
(0.100947 -0.000590451 0)
(0.10133 -0.000686584 0)
(0.101761 -0.000778585 0)
(0.102237 -0.000867236 0)
(0.102754 -0.000953135 0)
(0.103308 -0.00103675 0)
(0.103896 -0.00111844 0)
(0.104516 -0.00119852 0)
(0.105165 -0.00127721 0)
(0.105842 -0.0013547 0)
(0.106545 -0.00143116 0)
(0.10727 -0.0015067 0)
(0.108018 -0.0015814 0)
(0.108786 -0.00165535 0)
(0.109573 -0.00172859 0)
(0.110378 -0.00180115 0)
(0.111198 -0.00187303 0)
(0.112034 -0.00194425 0)
(0.112883 -0.00201478 0)
(0.113744 -0.00208459 0)
(0.114617 -0.00215366 0)
(0.1155 -0.00222192 0)
(0.116391 -0.00228931 0)
(0.117291 -0.00235578 0)
(0.118197 -0.00242122 0)
(0.11911 -0.00248556 0)
(0.120027 -0.00254868 0)
(0.120947 -0.00261048 0)
(0.121871 -0.00267084 0)
(0.122796 -0.00272961 0)
(0.123722 -0.00278664 0)
(0.124647 -0.00284178 0)
(0.125571 -0.00289484 0)
(0.126493 -0.00294564 0)
(0.127411 -0.00299396 0)
(0.128325 -0.00303958 0)
(0.129234 -0.00308223 0)
(0.130136 -0.00312165 0)
(0.131031 -0.00315752 0)
(0.131917 -0.00318952 0)
(0.132793 -0.00321726 0)
(0.133659 -0.00324034 0)
(0.134513 -0.00325829 0)
(0.135354 -0.0032706 0)
(0.13618 -0.0032767 0)
(0.136991 -0.00327592 0)
(0.137786 -0.00326754 0)
(0.138562 -0.00325072 0)
(0.139318 -0.00322452 0)
(0.140054 -0.00318784 0)
(0.140767 -0.00313945 0)
(0.141457 -0.00307791 0)
(0.14212 -0.00300155 0)
(0.142756 -0.00290845 0)
(0.143363 -0.00279636 0)
(0.143939 -0.00266263 0)
(0.144482 -0.00250417 0)
(0.144989 -0.00231732 0)
(0.14546 -0.00209772 0)
(0.145892 -0.00184024 0)
(0.146283 -0.00153871 0)
(0.146632 -0.00118582 0)
(0.146939 -0.000772801 0)
(0.147202 -0.000289268 0)
(0.147424 0.000277002 0)
(0.147608 0.000939982 0)
(0.14776 0.0017162 0)
(0.14789 0.00262447 0)
(0.148016 0.0036854 0)
(0.14816 0.00492034 0)
(0.148358 0.0063492 0)
(0.148654 0.00798657 0)
(0.14911 0.00983515 0)
(0.149795 0.0118757 0)
(0.150786 0.0140528 0)
(0.152144 0.0162585 0)
(0.153883 0.0183232 0)
(0.100015 -0.000158888 0)
(0.100138 -0.000312745 0)
(0.100337 -0.000451692 0)
(0.1006 -0.000580459 0)
(0.100923 -0.00070142 0)
(0.1013 -0.00081622 0)
(0.101724 -0.000926063 0)
(0.102193 -0.00103188 0)
(0.102702 -0.00113438 0)
(0.103248 -0.00123411 0)
(0.103828 -0.00133153 0)
(0.104439 -0.00142699 0)
(0.10508 -0.00152077 0)
(0.105748 -0.0016131 0)
(0.106441 -0.00170415 0)
(0.107158 -0.00179409 0)
(0.107896 -0.00188301 0)
(0.108654 -0.00197099 0)
(0.10943 -0.0020581 0)
(0.110224 -0.00214437 0)
(0.111034 -0.00222981 0)
(0.111858 -0.00231443 0)
(0.112695 -0.00239819 0)
(0.113544 -0.00248108 0)
(0.114404 -0.00256305 0)
(0.115274 -0.00264402 0)
(0.116153 -0.00272394 0)
(0.117039 -0.00280271 0)
(0.117932 -0.00288024 0)
(0.11883 -0.00295641 0)
(0.119732 -0.00303111 0)
(0.120638 -0.00310421 0)
(0.121546 -0.00317554 0)
(0.122456 -0.00324496 0)
(0.123366 -0.00331228 0)
(0.124275 -0.00337731 0)
(0.125182 -0.00343984 0)
(0.126087 -0.00349965 0)
(0.126989 -0.00355648 0)
(0.127885 -0.00361007 0)
(0.128776 -0.00366011 0)
(0.129661 -0.00370629 0)
(0.130537 -0.00374824 0)
(0.131405 -0.00378558 0)
(0.132264 -0.00381787 0)
(0.133111 -0.00384464 0)
(0.133947 -0.00386534 0)
(0.134769 -0.0038794 0)
(0.135578 -0.00388614 0)
(0.136371 -0.00388483 0)
(0.137147 -0.00387463 0)
(0.137907 -0.00385461 0)
(0.138647 -0.0038237 0)
(0.139367 -0.00378069 0)
(0.140066 -0.00372421 0)
(0.140742 -0.00365268 0)
(0.141394 -0.00356431 0)
(0.14202 -0.00345702 0)
(0.14262 -0.00332841 0)
(0.143192 -0.00317573 0)
(0.143734 -0.00299577 0)
(0.144246 -0.00278481 0)
(0.144727 -0.00253853 0)
(0.145176 -0.00225191 0)
(0.145592 -0.00191912 0)
(0.145976 -0.00153339 0)
(0.146329 -0.00108695 0)
(0.146654 -0.000570862 0)
(0.146955 2.49789e-05 0)
(0.147238 0.000711267 0)
(0.14751 0.00149958 0)
(0.147787 0.00240217 0)
(0.148084 0.0034309 0)
(0.148426 0.00459593 0)
(0.148841 0.00590362 0)
(0.149366 0.0073536 0)
(0.150042 0.0089347 0)
(0.150913 0.0106199 0)
(0.15202 0.0123609 0)
(0.153389 0.0140844 0)
(0.155012 0.0156946 0)
(0.100013 -0.000182849 0)
(0.100132 -0.000362612 0)
(0.100326 -0.000525112 0)
(0.100583 -0.000675957 0)
(0.100898 -0.000817771 0)
(0.101267 -0.000952372 0)
(0.101684 -0.00108115 0)
(0.102144 -0.00120517 0)
(0.102644 -0.00132527 0)
(0.103181 -0.00144209 0)
(0.103752 -0.00155617 0)
(0.104354 -0.0016679 0)
(0.104985 -0.00177763 0)
(0.105642 -0.00188563 0)
(0.106325 -0.0019921 0)
(0.10703 -0.00209722 0)
(0.107757 -0.00220111 0)
(0.108503 -0.00230387 0)
(0.109268 -0.00240557 0)
(0.110049 -0.00250625 0)
(0.110846 -0.00260593 0)
(0.111656 -0.00270459 0)
(0.11248 -0.00280223 0)
(0.113315 -0.0028988 0)
(0.114161 -0.00299425 0)
(0.115016 -0.0030885 0)
(0.11588 -0.00318147 0)
(0.11675 -0.00327306 0)
(0.117627 -0.00336316 0)
(0.118509 -0.00345163 0)
(0.119395 -0.00353833 0)
(0.120283 -0.00362312 0)
(0.121174 -0.0037058 0)
(0.122066 -0.00378621 0)
(0.122958 -0.00386412 0)
(0.123848 -0.00393932 0)
(0.124737 -0.00401156 0)
(0.125623 -0.00408058 0)
(0.126505 -0.0041461 0)
(0.127382 -0.0042078 0)
(0.128253 -0.00426534 0)
(0.129118 -0.00431836 0)
(0.129974 -0.00436643 0)
(0.130822 -0.00440913 0)
(0.131659 -0.00444596 0)
(0.132486 -0.00447637 0)
(0.133302 -0.00449978 0)
(0.134104 -0.00451551 0)
(0.134892 -0.00452285 0)
(0.135666 -0.00452096 0)
(0.136424 -0.00450893 0)
(0.137164 -0.00448575 0)
(0.137887 -0.00445024 0)
(0.13859 -0.00440113 0)
(0.139274 -0.00433695 0)
(0.139936 -0.00425603 0)
(0.140576 -0.00415651 0)
(0.141193 -0.00403625 0)
(0.141786 -0.00389283 0)
(0.142355 -0.0037235 0)
(0.142898 -0.0035251 0)
(0.143416 -0.00329409 0)
(0.143908 -0.0030264 0)
(0.144375 -0.00271746 0)
(0.144818 -0.00236211 0)
(0.145238 -0.00195458 0)
(0.145639 -0.00148849 0)
(0.146024 -0.000956888 0)
(0.146399 -0.000352293 0)
(0.146772 0.000333082 0)
(0.147151 0.00110575 0)
(0.14755 0.00197222 0)
(0.147985 0.00293745 0)
(0.148476 0.00400376 0)
(0.149044 0.00516925 0)
(0.149716 0.00642608 0)
(0.150517 0.00775842 0)
(0.151472 0.00914054 0)
(0.152601 0.0105355 0)
(0.153911 0.0118958 0)
(0.155391 0.0131674 0)
(0.10001 -0.000207525 0)
(0.100127 -0.000414282 0)
(0.100315 -0.000601522 0)
(0.100565 -0.000775615 0)
(0.100873 -0.000939452 0)
(0.101233 -0.001095 0)
(0.10164 -0.0012438 0)
(0.102091 -0.00138709 0)
(0.102581 -0.00152581 0)
(0.103108 -0.00166071 0)
(0.103668 -0.00179238 0)
(0.104259 -0.00192131 0)
(0.104879 -0.00204787 0)
(0.105525 -0.00217238 0)
(0.106195 -0.00229508 0)
(0.106888 -0.00241618 0)
(0.107602 -0.00253581 0)
(0.108335 -0.00265409 0)
(0.109085 -0.00277109 0)
(0.109852 -0.00288687 0)
(0.110634 -0.00300144 0)
(0.11143 -0.0031148 0)
(0.112238 -0.00322692 0)
(0.113058 -0.00333776 0)
(0.113887 -0.00344725 0)
(0.114726 -0.00355531 0)
(0.115572 -0.00366185 0)
(0.116425 -0.00376674 0)
(0.117284 -0.00386985 0)
(0.118147 -0.00397104 0)
(0.119014 -0.00407014 0)
(0.119884 -0.00416697 0)
(0.120755 -0.00426134 0)
(0.121627 -0.00435302 0)
(0.122498 -0.00444179 0)
(0.123368 -0.00452739 0)
(0.124236 -0.00460953 0)
(0.125101 -0.00468794 0)
(0.125961 -0.00476227 0)
(0.126816 -0.00483218 0)
(0.127665 -0.00489729 0)
(0.128508 -0.00495717 0)
(0.129342 -0.00501139 0)
(0.130167 -0.00505943 0)
(0.130982 -0.00510077 0)
(0.131787 -0.0051348 0)
(0.13258 -0.00516088 0)
(0.13336 -0.00517827 0)
(0.134127 -0.0051862 0)
(0.13488 -0.00518378 0)
(0.135617 -0.00517003 0)
(0.136338 -0.00514387 0)
(0.137042 -0.0051041 0)
(0.137728 -0.00504937 0)
(0.138395 -0.00497818 0)
(0.139043 -0.00488886 0)
(0.139671 -0.00477952 0)
(0.140279 -0.00464807 0)
(0.140866 -0.00449218 0)
(0.141432 -0.00430922 0)
(0.141977 -0.00409628 0)
(0.142501 -0.00385014 0)
(0.143005 -0.00356723 0)
(0.143491 -0.00324365 0)
(0.14396 -0.00287517 0)
(0.144416 -0.00245726 0)
(0.14486 -0.00198517 0)
(0.1453 -0.00145406 0)
(0.14574 -0.000859107 0)
(0.146189 -0.000195669 0)
(0.146656 0.000540085 0)
(0.147152 0.00134933 0)
(0.14769 0.00223234 0)
(0.148284 0.00318674 0)
(0.14895 0.00420657 0)
(0.149706 0.00528143 0)
(0.150565 0.00639577 0)
(0.151541 0.00752846 0)
(0.152642 0.00865309 0)
(0.153866 0.00973943 0)
(0.155204 0.0107567 0)
(0.100006 -0.000232946 0)
(0.100121 -0.000467735 0)
(0.100303 -0.00068088 0)
(0.100546 -0.000879375 0)
(0.100846 -0.00106639 0)
(0.101197 -0.00124402 0)
(0.101595 -0.00141396 0)
(0.102035 -0.00157759 0)
(0.102515 -0.00173595 0)
(0.10303 -0.00188991 0)
(0.103578 -0.00204013 0)
(0.104157 -0.00218716 0)
(0.104764 -0.00233144 0)
(0.105396 -0.00247331 0)
(0.106053 -0.00261307 0)
(0.106731 -0.00275092 0)
(0.107431 -0.00288705 0)
(0.108149 -0.00302158 0)
(0.108884 -0.0031546 0)
(0.109635 -0.00328615 0)
(0.110401 -0.00341626 0)
(0.11118 -0.00354493 0)
(0.111971 -0.00367212 0)
(0.112772 -0.00379779 0)
(0.113584 -0.00392186 0)
(0.114403 -0.00404424 0)
(0.11523 -0.00416481 0)
(0.116064 -0.00428344 0)
(0.116903 -0.00439998 0)
(0.117745 -0.00451427 0)
(0.118591 -0.00462611 0)
(0.11944 -0.0047353 0)
(0.120289 -0.00484163 0)
(0.121139 -0.00494484 0)
(0.121988 -0.00504467 0)
(0.122835 -0.00514084 0)
(0.12368 -0.00523304 0)
(0.124521 -0.00532094 0)
(0.125358 -0.00540417 0)
(0.126189 -0.00548235 0)
(0.127014 -0.00555505 0)
(0.127832 -0.00562182 0)
(0.128642 -0.00568216 0)
(0.129443 -0.00573554 0)
(0.130234 -0.00578137 0)
(0.131014 -0.005819 0)
(0.131783 -0.00584775 0)
(0.13254 -0.00586684 0)
(0.133284 -0.00587545 0)
(0.134014 -0.00587265 0)
(0.13473 -0.00585743 0)
(0.13543 -0.00582869 0)
(0.136114 -0.00578521 0)
(0.136782 -0.00572563 0)
(0.137433 -0.00564848 0)
(0.138067 -0.00555212 0)
(0.138683 -0.00543476 0)
(0.139281 -0.00529444 0)
(0.139862 -0.00512899 0)
(0.140425 -0.00493606 0)
(0.140971 -0.0047131 0)
(0.141502 -0.00445738 0)
(0.142018 -0.00416596 0)
(0.142521 -0.00383576 0)
(0.143015 -0.00346361 0)
(0.143501 -0.00304631 0)
(0.143985 -0.00258072 0)
(0.14447 -0.00206395 0)
(0.144964 -0.00149351 0)
(0.145473 -0.000867472 0)
(0.146006 -0.000184549 0)
(0.146571 0.000555008 0)
(0.147178 0.00134736 0)
(0.147837 0.00218784 0)
(0.148559 0.0030692 0)
(0.149352 0.00398127 0)
(0.150226 0.0049108 0)
(0.151185 0.00584174 0)
(0.152232 0.00675587 0)
(0.153363 0.00763408 0)
(0.154569 0.00845862 0)
(0.100003 -0.000259131 0)
(0.100115 -0.000522947 0)
(0.100292 -0.000763135 0)
(0.100527 -0.000987163 0)
(0.100818 -0.0011985 0)
(0.101159 -0.00139933 0)
(0.101547 -0.00159151 0)
(0.101976 -0.00177652 0)
(0.102443 -0.00195556 0)
(0.102946 -0.00212956 0)
(0.103481 -0.00229928 0)
(0.104046 -0.00246533 0)
(0.104639 -0.00262819 0)
(0.105257 -0.00278828 0)
(0.105898 -0.00294589 0)
(0.106561 -0.00310129 0)
(0.107244 -0.00325467 0)
(0.107946 -0.00340615 0)
(0.108664 -0.00355586 0)
(0.109397 -0.00370383 0)
(0.110145 -0.00385011 0)
(0.110905 -0.00399468 0)
(0.111677 -0.0041375 0)
(0.112459 -0.00427853 0)
(0.11325 -0.00441767 0)
(0.114049 -0.00455483 0)
(0.114855 -0.00468986 0)
(0.115667 -0.00482263 0)
(0.116483 -0.00495296 0)
(0.117303 -0.00508067 0)
(0.118127 -0.00520555 0)
(0.118951 -0.00532737 0)
(0.119777 -0.00544587 0)
(0.120603 -0.0055608 0)
(0.121427 -0.00567186 0)
(0.122249 -0.00577874 0)
(0.123069 -0.00588108 0)
(0.123884 -0.00597854 0)
(0.124695 -0.00607071 0)
(0.125501 -0.00615717 0)
(0.1263 -0.00623747 0)
(0.127092 -0.00631111 0)
(0.127875 -0.00637756 0)
(0.12865 -0.00643625 0)
(0.129415 -0.00648656 0)
(0.13017 -0.00652782 0)
(0.130914 -0.00655929 0)
(0.131646 -0.0065802 0)
(0.132365 -0.00658967 0)
(0.133072 -0.00658679 0)
(0.133764 -0.00657054 0)
(0.134443 -0.00653981 0)
(0.135107 -0.00649342 0)
(0.135756 -0.00643006 0)
(0.13639 -0.00634833 0)
(0.137009 -0.00624671 0)
(0.137612 -0.00612356 0)
(0.138201 -0.00597711 0)
(0.138775 -0.00580548 0)
(0.139335 -0.00560669 0)
(0.139882 -0.00537863 0)
(0.140418 -0.00511914 0)
(0.140944 -0.00482601 0)
(0.141462 -0.00449703 0)
(0.141976 -0.00413007 0)
(0.142488 -0.00372316 0)
(0.143002 -0.00327461 0)
(0.143523 -0.00278316 0)
(0.144057 -0.00224812 0)
(0.144608 -0.00166952 0)
(0.145185 -0.00104824 0)
(0.145793 -0.000385996 0)
(0.146441 0.000314454 0)
(0.147133 0.00104641 0)
(0.147877 0.00180221 0)
(0.148677 0.00257311 0)
(0.149537 0.00334879 0)
(0.150458 0.00411763 0)
(0.151439 0.00486729 0)
(0.152478 0.00558568 0)
(0.153565 0.00626241 0)
(0.0999995 -0.000286089 0)
(0.10011 -0.000579885 0)
(0.100281 -0.000848213 0)
(0.100508 -0.00109888 0)
(0.10079 -0.00133563 0)
(0.101121 -0.00156077 0)
(0.101497 -0.00177625 0)
(0.101914 -0.0019837 0)
(0.102368 -0.00218442 0)
(0.102857 -0.00237944 0)
(0.103378 -0.00256959 0)
(0.103928 -0.00275555 0)
(0.104505 -0.00293786 0)
(0.105107 -0.00311698 0)
(0.105732 -0.00329324 0)
(0.106378 -0.00346694 0)
(0.107043 -0.00363828 0)
(0.107726 -0.00380741 0)
(0.108425 -0.00397446 0)
(0.109139 -0.00413948 0)
(0.109866 -0.0043025 0)
(0.110606 -0.00446352 0)
(0.111357 -0.00462249 0)
(0.112117 -0.00477936 0)
(0.112886 -0.00493402 0)
(0.113662 -0.00508636 0)
(0.114445 -0.00523623 0)
(0.115233 -0.00538348 0)
(0.116026 -0.00552791 0)
(0.116821 -0.00566931 0)
(0.11762 -0.00580746 0)
(0.118419 -0.0059421 0)
(0.119219 -0.00607296 0)
(0.120018 -0.00619975 0)
(0.120816 -0.00632213 0)
(0.121611 -0.00643978 0)
(0.122403 -0.00655232 0)
(0.123191 -0.00665936 0)
(0.123975 -0.00676047 0)
(0.124752 -0.0068552 0)
(0.125523 -0.00694306 0)
(0.126287 -0.00702355 0)
(0.127043 -0.00709609 0)
(0.12779 -0.00716008 0)
(0.128528 -0.0072149 0)
(0.129255 -0.00725984 0)
(0.129972 -0.00729417 0)
(0.130678 -0.0073171 0)
(0.131372 -0.00732776 0)
(0.132054 -0.00732524 0)
(0.132723 -0.00730856 0)
(0.133379 -0.00727667 0)
(0.134022 -0.00722843 0)
(0.134651 -0.00716265 0)
(0.135268 -0.00707804 0)
(0.135871 -0.00697325 0)
(0.136461 -0.00684686 0)
(0.137039 -0.00669737 0)
(0.137606 -0.00652324 0)
(0.138162 -0.00632289 0)
(0.138708 -0.00609475 0)
(0.139247 -0.00583723 0)
(0.139779 -0.00554884 0)
(0.140308 -0.00522821 0)
(0.140836 -0.00487414 0)
(0.141367 -0.00448572 0)
(0.141902 -0.00406241 0)
(0.142448 -0.00360414 0)
(0.143007 -0.00311147 0)
(0.143585 -0.00258563 0)
(0.144186 -0.00202868 0)
(0.144815 -0.00144351 0)
(0.145478 -0.000833749 0)
(0.146178 -0.000203348 0)
(0.146919 0.00044168 0)
(0.147703 0.00109297 0)
(0.148531 0.00174209 0)
(0.149402 0.00238083 0)
(0.150315 0.00300097 0)
(0.151265 0.00359495 0)
(0.152247 0.00415669 0)
(0.0999956 -0.000313816 0)
(0.100104 -0.000638497 0)
(0.10027 -0.000936015 0)
(0.100489 -0.00121437 0)
(0.10076 -0.0014776 0)
(0.10108 -0.00172811 0)
(0.101444 -0.00196794 0)
(0.101848 -0.00219884 0)
(0.102289 -0.00242221 0)
(0.102763 -0.00263919 0)
(0.103269 -0.00285068 0)
(0.103803 -0.00305742 0)
(0.104363 -0.00326001 0)
(0.104947 -0.00345895 0)
(0.105554 -0.00365462 0)
(0.106181 -0.00384733 0)
(0.106826 -0.00403732 0)
(0.107489 -0.00422475 0)
(0.108168 -0.00440974 0)
(0.10886 -0.00459238 0)
(0.109566 -0.00477268 0)
(0.110283 -0.00495065 0)
(0.111011 -0.00512624 0)
(0.111747 -0.00529936 0)
(0.112492 -0.00546993 0)
(0.113244 -0.00563781 0)
(0.114002 -0.00580285 0)
(0.114764 -0.00596485 0)
(0.11553 -0.00612361 0)
(0.116299 -0.00627892 0)
(0.11707 -0.00643051 0)
(0.117842 -0.00657811 0)
(0.118614 -0.00672142 0)
(0.119385 -0.00686013 0)
(0.120154 -0.00699388 0)
(0.12092 -0.00712232 0)
(0.121683 -0.00724504 0)
(0.122442 -0.00736163 0)
(0.123196 -0.00747164 0)
(0.123944 -0.0075746 0)
(0.124685 -0.00766999 0)
(0.125419 -0.00775728 0)
(0.126146 -0.00783589 0)
(0.126863 -0.00790521 0)
(0.127572 -0.0079646 0)
(0.128271 -0.00801336 0)
(0.12896 -0.00805076 0)
(0.129638 -0.00807601 0)
(0.130305 -0.00808831 0)
(0.130961 -0.00808676 0)
(0.131605 -0.00807046 0)
(0.132238 -0.00803842 0)
(0.132859 -0.00798962 0)
(0.133468 -0.00792301 0)
(0.134066 -0.00783746 0)
(0.134653 -0.00773184 0)
(0.135229 -0.00760497 0)
(0.135796 -0.00745569 0)
(0.136353 -0.00728281 0)
(0.136903 -0.0070852 0)
(0.137446 -0.00686177 0)
(0.137984 -0.00661152 0)
(0.138519 -0.00633362 0)
(0.139054 -0.00602739 0)
(0.13959 -0.00569243 0)
(0.14013 -0.00532863 0)
(0.140678 -0.00493628 0)
(0.141236 -0.00451612 0)
(0.141808 -0.00406941 0)
(0.142397 -0.00359801 0)
(0.143006 -0.00310442 0)
(0.143639 -0.00259177 0)
(0.144298 -0.00206383 0)
(0.144985 -0.00152488 0)
(0.145704 -0.000979514 0)
(0.146455 -0.000432073 0)
(0.147239 0.00011202 0)
(0.148053 0.000646495 0)
(0.148896 0.0011647 0)
(0.149764 0.00166133 0)
(0.150652 0.00213284 0)
(0.0999915 -0.000342289 0)
(0.100098 -0.000698707 0)
(0.100258 -0.0010264 0)
(0.100468 -0.00133346 0)
(0.10073 -0.00162418 0)
(0.101038 -0.00190106 0)
(0.10139 -0.00216623 0)
(0.10178 -0.00242154 0)
(0.102206 -0.0026685 0)
(0.102664 -0.00290833 0)
(0.103153 -0.00314202 0)
(0.10367 -0.00337037 0)
(0.104212 -0.00359403 0)
(0.104777 -0.00381354 0)
(0.105364 -0.00402933 0)
(0.10597 -0.00424172 0)
(0.106595 -0.00445098 0)
(0.107236 -0.00465729 0)
(0.107891 -0.00486079 0)
(0.108561 -0.00506155 0)
(0.109243 -0.00525962 0)
(0.109936 -0.00545497 0)
(0.110638 -0.00564756 0)
(0.111349 -0.00583731 0)
(0.112068 -0.00602411 0)
(0.112793 -0.0062078 0)
(0.113524 -0.00638823 0)
(0.114258 -0.00656519 0)
(0.114996 -0.00673847 0)
(0.115736 -0.0069078 0)
(0.116478 -0.00707292 0)
(0.11722 -0.00723354 0)
(0.117962 -0.00738934 0)
(0.118703 -0.00753997 0)