/*--------------------------------*- C++ -*----------------------------------*\
| =========                 |                                                 |
| \\      /  F ield         | OpenFOAM: The Open Source CFD Toolbox           |
|  \\    /   O peration     | Version:  2106                                  |
|   \\  /    A nd           | Website:  www.openfoam.com                      |
|    \\/     M anipulation  |                                                 |
\*---------------------------------------------------------------------------*/
FoamFile
{
    version     2.0;
    format      ascii;
    arch        "LSB;label=32;scalar=64";
    class       surfaceScalarField;
    location    "5.4";
    object      phi;
}
// * * * * * * * * * * * * * * * * * * * * * * * * * * * * * * * * * * * * * //

dimensions      [1 0 -1 0 0 0 0];

oriented        oriented;

internalField   nonuniform List<scalar> 
23692
(
9.31754e-05
-9.59773e-08
9.3349e-05
-1.73576e-07
9.35917e-05
-2.4258e-07
9.3895e-05
-3.03265e-07
9.42526e-05
-3.57575e-07
9.46594e-05
-4.06698e-07
9.51109e-05
-4.51423e-07
9.56035e-05
-4.92385e-07
9.61337e-05
-5.30066e-07
9.66987e-05
-5.64856e-07
9.72959e-05
-5.97066e-07
9.7923e-05
-6.26954e-07
9.85779e-05
-6.54736e-07
9.92587e-05
-6.80594e-07
9.99636e-05
-7.04672e-07
0.000100691
-7.27099e-07
0.000101439
-7.47986e-07
0.000102207
-7.67419e-07
0.000102992
-7.85478e-07
0.000103795
-8.02234e-07
0.000104613
-8.17739e-07
0.000105445
-8.32042e-07
0.000106291
-8.45189e-07
0.000107148
-8.57211e-07
0.000108017
-8.68143e-07
0.000108895
-8.78006e-07
0.000109782
-8.86827e-07
0.000110677
-8.94621e-07
0.000111578
-9.01408e-07
0.000112486
-9.07195e-07
0.000113398
-9.11995e-07
0.000114314
-9.15815e-07
0.000115233
-9.18661e-07
0.000116154
-9.20534e-07
0.000117076
-9.21436e-07
0.000117997
-9.21364e-07
0.000118918
-9.20313e-07
0.000119836
-9.18277e-07
0.000120752
-9.15246e-07
0.000121663
-9.11204e-07
0.000122569
-9.06138e-07
0.00012347
-9.00025e-07
0.000124363
-8.92842e-07
0.000125247
-8.84557e-07
0.000126123
-8.75136e-07
0.000126987
-8.64537e-07
0.00012784
-8.52709e-07
0.00012868
-8.39595e-07
0.000129505
-8.25126e-07
0.000130315
-8.09223e-07
0.000131107
-7.91789e-07
0.000131879
-7.72716e-07
0.000132631
-7.51872e-07
0.000133361
-7.291e-07
0.000134065
-7.0422e-07
0.000134742
-6.77012e-07
0.000135389
-6.47215e-07
0.000136004
-6.14515e-07
0.000136583
-5.78532e-07
0.000137122
-5.38805e-07
0.000137616
-4.94766e-07
0.000138062
-4.45717e-07
0.000138453
-3.90783e-07
0.000138782
-3.28864e-07
0.000139041
-2.58557e-07
0.000139219
-1.78055e-07
0.000139304
-8.49952e-08
0.00013928
2.37462e-08
0.000139128
1.52501e-07
0.00013882
3.07247e-07
0.000138324
4.965e-07
0.000137591
7.32623e-07
0.000136557
1.0341e-06
0.000135128
1.42933e-06
0.000133165
1.9633e-06
0.000130455
2.70926e-06
0.000126666
3.78926e-06
0.000121254
5.41245e-06
0.00011329
7.96376e-06
0.000101058
1.22319e-05
2.04761e-05
8.05819e-05
9.96992e-05
-1.96135e-07
9.98839e-05
-3.58261e-07
0.000100143
-5.01316e-07
0.000100466
-6.26897e-07
0.000100848
-7.39331e-07
0.000101283
-8.41012e-07
0.000101765
-9.33583e-07
0.000102291
-1.01835e-06
0.000102857
-1.09633e-06
0.000103461
-1.16831e-06
0.000104099
-1.23495e-06
0.000104769
-1.29679e-06
0.000105469
-1.35427e-06
0.000106196
-1.40775e-06
0.000106949
-1.45755e-06
0.000107726
-1.50394e-06
0.000108526
-1.54712e-06
0.000109346
-1.58731e-06
0.000110185
-1.62465e-06
0.000111043
-1.65929e-06
0.000111916
-1.69134e-06
0.000112806
-1.7209e-06
0.000113709
-1.74806e-06
0.000114625
-1.7729e-06
0.000115552
-1.79547e-06
0.00011649
-1.81584e-06
0.000117438
-1.83405e-06
0.000118394
-1.85013e-06
0.000119357
-1.86412e-06
0.000120326
-1.87604e-06
0.0001213
-1.88593e-06
0.000122278
-1.89378e-06
0.000123259
-1.89961e-06
0.000124243
-1.90343e-06
0.000125227
-1.90525e-06
0.000126211
-1.90504e-06
0.000127193
-1.90281e-06
0.000128174
-1.89854e-06
0.000129151
-1.89221e-06
0.000130124
-1.88379e-06
0.000131091
-1.87325e-06
0.000132052
-1.86055e-06
0.000133005
-1.84563e-06
0.000133949
-1.82844e-06
0.000134883
-1.8089e-06
0.000135805
-1.78692e-06
0.000136715
-1.76241e-06
0.000137611
-1.73524e-06
0.000138491
-1.70528e-06
0.000139355
-1.67235e-06
0.000140199
-1.63628e-06
0.000141024
-1.59683e-06
0.000141826
-1.55373e-06
0.000142603
-1.50667e-06
0.000143354
-1.45527e-06
0.000144077
-1.3991e-06
0.000144767
-1.33762e-06
0.000145423
-1.2702e-06
0.000146041
-1.19607e-06
0.000146616
-1.1143e-06
0.000147145
-1.02375e-06
0.000147623
-9.23012e-07
0.000148042
-8.1035e-07
0.000148397
-6.83571e-07
0.000148678
-5.39904e-07
0.000148876
-3.75789e-07
0.000148978
-1.86614e-07
0.000148968
3.36837e-08
0.000148827
2.93304e-07
0.000148531
6.03488e-07
0.000148048
9.79923e-07
0.000147335
1.44488e-06
0.000146339
2.03065e-06
0.000144983
2.78504e-06
0.000143166
3.78006e-06
0.00014075
5.12562e-06
0.00013755
6.98918e-06
0.000133341
9.62172e-06
0.000127913
1.33918e-05
0.000121398
1.87472e-05
2.54934e-05
0.00011638
0.000106679
-2.99869e-07
0.000106874
-5.53813e-07
0.000107149
-7.76006e-07
0.000107494
-9.71185e-07
0.0001079
-1.14585e-06
0.000108363
-1.30377e-06
0.000108877
-1.44751e-06
0.000109438
-1.57911e-06
0.000110042
-1.70015e-06
0.000110686
-1.81187e-06
0.000111366
-1.91529e-06
0.000112081
-2.01125e-06
0.000112827
-2.10042e-06
0.000113603
-2.18338e-06
0.000114406
-2.26062e-06
0.000115235
-2.33255e-06
0.000116088
-2.39952e-06
0.000116963
-2.46181e-06
0.000117858
-2.51969e-06
0.000118772
-2.57336e-06
0.000119704
-2.62301e-06
0.000120652
-2.66879e-06
0.000121616
-2.71084e-06
0.000122592
-2.74928e-06
0.000123581
-2.78421e-06
0.000124581
-2.8157e-06
0.000125591
-2.84384e-06
0.00012661
-2.86867e-06
0.000127637
-2.89025e-06
0.00012867
-2.90863e-06
0.000129708
-2.92383e-06
0.00013075
-2.93588e-06
0.000131796
-2.94479e-06
0.000132843
-2.95057e-06
0.000133891
-2.95324e-06
0.000134939
-2.95277e-06
0.000135986
-2.94915e-06
0.00013703
-2.94238e-06
0.00013807
-2.9324e-06
0.000139106
-2.91918e-06
0.000140136
-2.90267e-06
0.000141158
-2.88281e-06
0.000142172
-2.85952e-06
0.000143177
-2.83269e-06
0.00014417
-2.80223e-06
0.000145152
-2.768e-06
0.000146119
-2.72985e-06
0.000147072
-2.68759e-06
0.000148008
-2.64101e-06
0.000148925
-2.58987e-06
0.000149823
-2.53386e-06
0.000150699
-2.47265e-06
0.000151551
-2.40583e-06
0.000152378
-2.33292e-06
0.000153176
-2.25336e-06
0.000153943
-2.16648e-06
0.000154677
-2.07149e-06
0.000155375
-1.96743e-06
0.000156032
-1.85316e-06
0.000156645
-1.72729e-06
0.00015721
-1.58814e-06
0.00015772
-1.43363e-06
0.000158171
-1.26121e-06
0.000158555
-1.0677e-06
0.000158865
-8.49088e-07
0.000159089
-6.00288e-07
0.000159217
-3.14771e-07
0.000159235
1.59014e-08
0.000159126
4.0289e-07
0.000158868
8.61101e-07
0.000158437
1.41086e-06
0.000157802
2.07999e-06
0.000156926
2.90711e-06
0.000155765
3.94627e-06
0.000154271
5.27332e-06
0.000152403
6.99384e-06
0.000150142
9.25002e-06
0.000147545
1.22188e-05
0.000144859
1.60781e-05
0.000142765
2.0841e-05
2.5776e-05
0.000142483
0.000114147
-4.0691e-07
0.000114353
-7.5972e-07
0.000114643
-1.06648e-06
0.000115009
-1.33623e-06
0.00011544
-1.57753e-06
0.000115932
-1.79561e-06
0.000116479
-1.99407e-06
0.000117076
-2.17573e-06
0.000117718
-2.34276e-06
0.000118404
-2.49692e-06
0.000119128
-2.63959e-06
0.000119889
-2.77192e-06
0.000120684
-2.89488e-06
0.00012151
-3.00927e-06
0.000122365
-3.11573e-06
0.000123248
-3.21486e-06
0.000124156
-3.30712e-06
0.000125087
-3.39292e-06
0.00012604
-3.47261e-06
0.000127014
-3.54649e-06
0.000128006
-3.6148e-06
0.000129015
-3.67778e-06
0.00013004
-3.73559e-06
0.00013108
-3.78841e-06
0.000132132
-3.83638e-06
0.000133196
-3.8796e-06
0.000134271
-3.91817e-06
0.000135355
-3.95219e-06
0.000136447
-3.98171e-06
0.000137545
-4.0068e-06
0.000138649
-4.0275e-06
0.000139757
-4.04385e-06
0.000140869
-4.05587e-06
0.000141982
-4.06356e-06
0.000143096
-4.06695e-06
0.000144209
-4.06601e-06
0.000145321
-4.06073e-06
0.00014643
-4.05108e-06
0.000147535
-4.03702e-06
0.000148635
-4.01849e-06
0.000149728
-3.99543e-06
0.000150813
-3.96775e-06
0.000151889
-3.93533e-06
0.000152955
-3.89806e-06
0.000154008
-3.85579e-06
0.000155049
-3.80834e-06
0.000156075
-3.7555e-06
0.000157084
-3.69703e-06
0.000158076
-3.63264e-06
0.000159049
-3.562e-06
0.00016
-3.48472e-06
0.000160927
-3.40033e-06
0.00016183
-3.3083e-06
0.000162705
-3.208e-06
0.000163551
-3.09868e-06
0.000164364
-2.97945e-06
0.000165142
-2.84926e-06
0.000165881
-2.70688e-06
0.000166579
-2.55081e-06
0.000167231
-2.37924e-06
0.000167833
-2.19001e-06
0.00016838
-1.98048e-06
0.000168866
-1.74739e-06
0.000169285
-1.48675e-06
0.00016963
-1.1936e-06
0.000169891
-8.61687e-07
0.00017006
-4.83166e-07
0.000170124
-4.8069e-08
0.000170071
4.56356e-07
0.000169885
1.04659e-06
0.000169552
1.74436e-06
0.000169054
2.57807e-06
0.000168376
3.58498e-06
0.000167508
4.81364e-06
0.000166455
6.32639e-06
0.000165249
8.20034e-06
0.000163975
1.05235e-05
0.000162817
1.33776e-05
0.000162106
1.67888e-05
0.000162343
2.06042e-05
2.42325e-05
0.000163886
0.000122138
-5.17138e-07
0.000122354
-9.75553e-07
0.00012266
-1.37248e-06
0.000123045
-1.72203e-06
0.000123503
-2.03463e-06
0.000124024
-2.31704e-06
0.000124604
-2.57397e-06
0.000125238
-2.80908e-06
0.00012592
-3.02522e-06
0.000126648
-3.22464e-06
0.000127418
-3.40915e-06
0.000128227
-3.58026e-06
0.000129071
-3.7392e-06
0.000129949
-3.88701e-06
0.000130858
-4.02456e-06
0.000131796
-4.15258e-06
0.000132761
-4.27169e-06
0.000133751
-4.38243e-06
0.000134764
-4.48524e-06
0.000135798
-4.58051e-06
0.000136852
-4.66857e-06
0.000137925
-4.7497e-06
0.000139013
-4.82414e-06
0.000140117
-4.89211e-06
0.000141235
-4.95377e-06
0.000142365
-5.00928e-06
0.000143506
-5.05878e-06
0.000144657
-5.10236e-06
0.000145815
-5.14012e-06
0.000146981
-5.17213e-06
0.000148152
-5.19846e-06
0.000149328
-5.21914e-06
0.000150507
-5.23422e-06
0.000151687
-5.2437e-06
0.000152868
-5.2476e-06
0.000154048
-5.2459e-06
0.000155226
-5.23859e-06
0.000156401
-5.22562e-06
0.000157571
-5.20695e-06
0.000158736
-5.18251e-06
0.000159893
-5.15221e-06
0.000161041
-5.11595e-06
0.00016218
-5.07358e-06
0.000163307
-5.02497e-06
0.000164421
-4.9699e-06
0.000165521
-4.90818e-06
0.000166606
-4.83954e-06
0.000167672
-4.76367e-06
0.00016872
-4.68022e-06
0.000169747
-4.58878e-06
0.000170752
-4.48886e-06
0.000171731
-4.37989e-06
0.000172684
-4.26121e-06
0.000173609
-4.13205e-06
0.000174502
-3.99148e-06
0.000175361
-3.83844e-06
0.000176183
-3.67167e-06
0.000176966
-3.48964e-06
0.000177706
-3.2906e-06
0.000178399
-3.07239e-06
0.000179042
-2.83246e-06
0.000179629
-2.56774e-06
0.000180156
-2.2745e-06
0.000180618
-1.94818e-06
0.000181008
-1.58325e-06
0.000181319
-1.17285e-06
0.000181544
-7.08549e-07
0.000181676
-1.79924e-07
0.000181707
4.25857e-07
0.000181629
1.12468e-06
0.000181437
1.93655e-06
0.000181128
2.88626e-06
0.000180709
4.00407e-06
0.000180197
5.32611e-06
0.00017963
6.89371e-06
0.00017908
8.75036e-06
0.000178669
1.09336e-05
0.00017859
1.34572e-05
0.000179103
1.62753e-05
0.000180489
1.92183e-05
2.19018e-05
0.00018282
0.000130688
-6.30538e-07
0.000130913
-1.20098e-06
0.000131235
-1.69376e-06
0.000131641
-2.12845e-06
0.000132124
-2.51722e-06
0.000132675
-2.86835e-06
0.000133289
-3.18771e-06
0.00013396
-3.47987e-06
0.000134683
-3.74838e-06
0.000135455
-3.99603e-06
0.000136271
-4.22511e-06
0.000137129
-4.43747e-06
0.000138024
-4.63468e-06
0.000138956
-4.81801e-06
0.00013992
-4.98855e-06
0.000140915
-5.14721e-06
0.000141938
-5.29478e-06
0.000142988
-5.43191e-06
0.000144062
-5.55917e-06
0.000145159
-5.67703e-06
0.000146277
-5.7859e-06
0.000147414
-5.88614e-06
0.000148568
-5.97806e-06
0.000149738
-6.0619e-06
0.000150923
-6.1379e-06
0.00015212
-6.20624e-06
0.000153329
-6.26708e-06
0.000154547
-6.32056e-06
0.000155774
-6.3668e-06
0.000157008
-6.40588e-06
0.000158248
-6.43789e-06
0.000159492
-6.46287e-06
0.000160739
-6.48088e-06
0.000161988
-6.49194e-06
0.000163236
-6.49606e-06
0.000164484
-6.49322e-06
0.000165729
-6.48342e-06
0.000166971
-6.4666e-06
0.000168207
-6.4427e-06
0.000169436
-6.41165e-06
0.000170658
-6.37335e-06
0.000171869
-6.32765e-06
0.000173071
-6.27442e-06
0.000174259
-6.21347e-06
0.000175434
-6.14457e-06
0.000176594
-6.06746e-06
0.000177736
-5.98184e-06
0.00017886
-5.88735e-06
0.000179964
-5.78357e-06
0.000181045
-5.67002e-06
0.000182103
-5.54613e-06
0.000183134
-5.41123e-06
0.000184138
-5.26457e-06
0.000185111
-5.10523e-06
0.000186052
-4.93218e-06
0.000186958
-4.74418e-06
0.000187826
-4.53979e-06
0.000188654
-4.31733e-06
0.000189438
-4.07479e-06
0.000190176
-3.80983e-06
0.000190863
-3.51964e-06
0.000191496
-3.20091e-06
0.000192072
-2.84966e-06
0.000192585
-2.46116e-06
0.000193031
-2.02973e-06
0.000193407
-1.54854e-06
0.000193708
-1.00939e-06
0.000193931
-4.02471e-07
0.000194073
2.83774e-07
0.000194135
1.06292e-06
0.00019412
1.95085e-06
0.00019404
2.96617e-06
0.000193915
4.12957e-06
0.000193778
5.46294e-06
0.000193685
6.9872e-06
0.000193717
8.71826e-06
0.000193991
1.06596e-05
0.000194658
1.279e-05
0.000195889
1.50441e-05
0.000197821
1.72864e-05
1.929e-05
0.000200433
0.000139836
-7.47192e-07
0.000140071
-1.43575e-06
0.000140408
-2.0301e-06
0.000140835
-2.55533e-06
0.000141343
-3.02529e-06
0.000141924
-3.44969e-06
0.000142572
-3.83562e-06
0.000143281
-4.18858e-06
0.000144046
-4.51286e-06
0.000144862
-4.81186e-06
0.000145725
-5.08834e-06
0.000146633
-5.34455e-06
0.000147581
-5.58239e-06
0.000148567
-5.80339e-06
0.000149587
-6.0089e-06
0.00015064
-6.20001e-06
0.000151724
-6.37767e-06
0.000152835
-6.54267e-06
0.000153971
-6.6957e-06
0.000155132
-6.83735e-06
0.000156315
-6.9681e-06
0.000157517
-7.0884e-06
0.000158738
-7.1986e-06
0.000159976
-7.29903e-06
0.000161228
-7.38995e-06
0.000162494
-7.47159e-06
0.000163771
-7.54416e-06
0.000165059
-7.60781e-06
0.000166355
-7.66269e-06
0.000167659
-7.70892e-06
0.000168968
-7.74659e-06
0.000170281
-7.77577e-06
0.000171597
-7.79651e-06
0.000172914
-7.80885e-06
0.000174232
-7.8128e-06
0.000175547
-7.80837e-06
0.000176859
-7.79551e-06
0.000178167
-7.77421e-06
0.000179469
-7.74438e-06
0.000180764
-7.70593e-06
0.00018205
-7.65876e-06
0.000183325
-7.60272e-06
0.000184589
-7.53763e-06
0.000185839
-7.46328e-06
0.000187074
-7.37943e-06
0.000188292
-7.28578e-06
0.000189493
-7.18198e-06
0.000190673
-7.06764e-06
0.000191832
-6.94229e-06
0.000192968
-6.80537e-06
0.000194078
-6.65626e-06
0.000195161
-6.49423e-06
0.000196215
-6.31841e-06
0.000197238
-6.12784e-06
0.000198228
-5.92137e-06
0.000199181
-5.69766e-06
0.000200097
-5.45517e-06
0.000200972
-5.1921e-06
0.000201803
-4.90637e-06
0.000202589
-4.59552e-06
0.000203326
-4.25669e-06
0.000204012
-3.88656e-06
0.000204644
-3.48121e-06
0.000205219
-3.03607e-06
0.000205735
-2.54581e-06
0.000206191
-2.00421e-06
0.000206585
-1.40406e-06
0.00020692
-7.3707e-07
0.000207198
5.83893e-09
0.000207426
8.35633e-07
0.000207614
1.76209e-06
0.000207783
2.7972e-06
0.000207961
3.95214e-06
0.000208187
5.23631e-06
0.00020852
6.65513e-06
0.000209031
8.2066e-06
0.000209814
9.87647e-06
0.000210973
1.16317e-05
0.000212605
1.34123e-05
0.000214767
1.51244e-05
1.66405e-05
0.000217416
0.000149626
-8.67231e-07
0.00014987
-1.67968e-06
0.000150221
-2.3813e-06
0.000150668
-3.00246e-06
0.000151202
-3.55871e-06
0.000151813
-4.06107e-06
0.000152496
-4.51784e-06
0.000153243
-4.93549e-06
0.000154049
-5.31908e-06
0.00015491
-5.67266e-06
0.000155822
-5.99947e-06
0.00015678
-6.30222e-06
0.000157781
-6.58311e-06
0.000158822
-6.84403e-06
0.0001599
-7.08651e-06
0.000161012
-7.3119e-06
0.000162156
-7.5213e-06
0.000163329
-7.71567e-06
0.00016453
-7.89581e-06
0.000165755
-8.06243e-06
0.000167004
-8.21612e-06
0.000168273
-8.35738e-06
0.000169561
-8.48665e-06
0.000170867
-8.60432e-06
0.000172188
-8.71071e-06
0.000173523
-8.80608e-06
0.00017487
-8.89069e-06
0.000176227
-8.96472e-06
0.000177594
-9.02835e-06
0.000178967
-9.08172e-06
0.000180345
-9.12494e-06
0.000181728
-9.15811e-06
0.000183113
-9.18129e-06
0.000184499
-9.19453e-06
0.000185885
-9.19785e-06
0.000187268
-9.19125e-06
0.000188648
-9.17472e-06
0.000190022
-9.1482e-06
0.00019139
-9.11164e-06
0.000192749
-9.06493e-06
0.000194099
-9.00796e-06
0.000195437
-8.94057e-06
0.000196762
-8.86257e-06
0.000198073
-8.77374e-06
0.000199368
-8.6738e-06
0.000200644
-8.56243e-06
0.000201902
-8.43927e-06
0.000203139
-8.30388e-06
0.000204352
-8.15576e-06
0.000205541
-7.99432e-06
0.000206704
-7.81889e-06
0.000207839
-7.6287e-06
0.000208944
-7.42284e-06
0.000210016
-7.2003e-06
0.000211055
-6.95988e-06
0.000212058
-6.70022e-06
0.000213022
-6.41975e-06
0.000213947
-6.11668e-06
0.00021483
-5.78893e-06
0.000215669
-5.43413e-06
0.000216462
-5.04955e-06
0.000217207
-4.63207e-06
0.000217904
-4.17814e-06
0.000218552
-3.6837e-06
0.000219151
-3.1442e-06
0.000219701
-2.55452e-06
0.000220206
-1.909e-06
0.00022067
-1.20147e-06
0.000221102
-4.25405e-07
0.000221511
4.25995e-07
0.000221916
1.35814e-06
0.000222337
2.37608e-06
0.000222806
3.48333e-06
0.000223362
4.68033e-06
0.000224054
5.9628e-06
0.000224941
7.31962e-06
0.000226087
8.73037e-06
0.000227556
1.01627e-05
0.000229398
1.157e-05
0.000231631
1.28919e-05
1.40583e-05
0.000234213
0.000160101
-9.90819e-07
0.000160354
-1.93263e-06
0.00016072
-2.74718e-06
0.000161187
-3.46963e-06
0.000161746
-4.11729e-06
0.000162387
-4.70236e-06
0.000163104
-5.23432e-06
0.000163889
-5.72065e-06
0.000164737
-6.16721e-06
0.000165644
-6.57867e-06
0.000166603
-6.95884e-06
0.000167612
-7.31086e-06
0.000168667
-7.63733e-06
0.000169764
-7.94041e-06
0.000170899
-8.22194e-06
0.000172071
-8.48346e-06
0.000173277
-8.72627e-06
0.000174513
-8.95149e-06
0.000175778
-9.16008e-06
0.000177068
-9.35284e-06
0.000178383
-9.53047e-06
0.00017972
-9.69358e-06
0.000181076
-9.84267e-06
0.000182451
-9.97819e-06
0.000183841
-1.01005e-05
0.000185245
-1.021e-05
0.000186662
-1.03069e-05
0.000188089
-1.03914e-05
0.000189525
-1.04638e-05
0.000190968
-1.05242e-05
0.000192416
-1.05728e-05
0.000193868
-1.06097e-05
0.000195322
-1.06349e-05
0.000196777
-1.06486e-05
0.00019823
-1.06507e-05
0.000199681
-1.06413e-05
0.000201127
-1.06204e-05
0.000202567
-1.05878e-05
0.000203999
-1.05437e-05
0.000205422
-1.04878e-05
0.000206835
-1.042e-05
0.000208235
-1.03402e-05
0.000209621
-1.02482e-05
0.000210991
-1.01438e-05
0.000212344
-1.00266e-05
0.000213678
-9.89638e-06
0.000214992
-9.75271e-06
0.000216284
-9.59515e-06
0.000217551
-9.42319e-06
0.000218794
-9.23623e-06
0.000220008
-9.03358e-06
0.000221194
-8.81448e-06
0.00022235
-8.57801e-06
0.000223473
-8.32316e-06
0.000224562
-8.04876e-06
0.000225616
-7.7535e-06
0.000226632
-7.43589e-06
0.00022761
-7.09421e-06
0.000228547
-6.72657e-06
0.000229444
-6.33081e-06
0.000230299
-5.90453e-06
0.000231112
-5.44505e-06
0.000231884
-4.9494e-06
0.000232615
-4.41436e-06
0.000233307
-3.83643e-06
0.000233964
-3.21189e-06
0.000234592
-2.53693e-06
0.000235199
-1.80772e-06
0.000235794
-1.02059e-06
0.000236392
-1.72154e-07
0.000237011
7.39501e-07
0.000237673
1.71391e-06
0.000238407
2.74919e-06
0.000239247
3.84042e-06
0.000240232
4.97859e-06
0.000241402
6.1496e-06
0.000242799
7.33335e-06
0.000244458
8.50318e-06
0.000246402
9.6261e-06
0.00024863
1.06645e-05
1.15804e-05
0.000251108
0.000171309
-1.11811e-06
0.000171571
-2.19452e-06
0.000171951
-3.12757e-06
0.000172438
-3.9566e-06
0.000173022
-4.70074e-06
0.000173693
-5.3733e-06
0.000174444
-5.98487e-06
0.000175267
-6.54392e-06
0.000176158
-7.05713e-06
0.000177109
-7.52986e-06
0.000178117
-7.96648e-06
0.000179177
-8.37057e-06
0.000180285
-8.74514e-06
0.000181438
-9.0927e-06
0.000182632
-9.41533e-06
0.000183863
-9.71484e-06
0.00018513
-9.99273e-06
0.000186429
-1.02503e-05
0.000187758
-1.04886e-05
0.000189115
-1.07087e-05
0.000190496
-1.09112e-05
0.0001919
-1.1097e-05
0.000193324
-1.12666e-05
0.000194767
-1.14205e-05
0.000196226
-1.15592e-05
0.0001977
-1.16831e-05
0.000199186
-1.17924e-05
0.000200682
-1.18875e-05
0.000202188
-1.19686e-05
0.0002037
-1.20359e-05
0.000205217
-1.20896e-05
0.000206738
-1.21298e-05
0.00020826
-1.21566e-05
0.000209782
-1.21701e-05
0.000211302
-1.21704e-05
0.000212818
-1.21574e-05
0.00021433
-1.21313e-05
0.000215834
-1.20918e-05
0.00021733
-1.20391e-05
0.000218815
-1.1973e-05
0.000220289
-1.18934e-05
0.00022175
-1.18002e-05
0.000223195
-1.16931e-05
0.000224623
-1.15719e-05
0.000226033
-1.14364e-05
0.000227424
-1.12862e-05
0.000228792
-1.1121e-05
0.000230138
-1.09403e-05
0.000231458
-1.07436e-05
0.000232753
-1.05303e-05
0.000234019
-1.02998e-05
0.000235256
-1.00514e-05
0.000236463
-9.78411e-06
0.000237637
-9.49709e-06
0.000238777
-9.18924e-06
0.000239884
-8.85937e-06
0.000240954
-8.50614e-06
0.000241988
-8.12807e-06
0.000242985
-7.72355e-06
0.000243945
-7.29078e-06
0.000244869
-6.82784e-06
0.000245757
-6.33267e-06
0.00024661
-5.80307e-06
0.000247433
-5.23681e-06
0.000248228
-4.63159e-06
0.000249002
-3.98524e-06
0.000249761
-3.29574e-06
0.000250514
-2.56148e-06
0.000251275
-1.78137e-06
0.000252058
-9.55069e-07
0.000252881
-8.30112e-08
0.000253763
8.31822e-07
0.000254729
1.78371e-06
0.000255804
2.76515e-06
0.000257017
3.76581e-06
0.000258394
4.77212e-06
0.000259961
5.76716e-06
0.000261733
6.73093e-06
0.000263718
7.64121e-06
0.000265907
8.4752e-06
9.21237e-06
0.000268275
0.000183302
-1.24924e-06
0.000183573
-2.46523e-06
0.000183968
-3.52225e-06
0.000184474
-4.46306e-06
0.000185082
-5.3087e-06
0.000185783
-6.07348e-06
0.000186567
-6.76906e-06
0.000187428
-7.40489e-06
0.00018836
-7.98849e-06
0.000189356
-8.52589e-06
0.000190412
-9.02204e-06
0.000191523
-9.48103e-06
0.000192684
-9.90626e-06
0.000193893
-1.03006e-05
0.000195144
-1.06664e-05
0.000196435
-1.10057e-05
0.000197764
-1.13204e-05
0.000199125
-1.16117e-05
0.000200518
-1.1881e-05
0.00020194
-1.21295e-05
0.000203387
-1.23579e-05
0.000204857
-1.25671e-05
0.000206349
-1.27578e-05
0.00020786
-1.29306e-05
0.000209387
-1.3086e-05
0.000210929
-1.32244e-05
0.000212483
-1.33463e-05
0.000214048
-1.34519e-05
0.000215622
-1.35416e-05
0.000217202
-1.36155e-05
0.000218787
-1.36739e-05
0.000220374
-1.37169e-05
0.000221963
-1.37447e-05
0.000223551
-1.37574e-05
0.000225136
-1.37551e-05
0.000226717
-1.37378e-05
0.000228291
-1.37055e-05
0.000229858
-1.36583e-05
0.000231416
-1.3596e-05
0.000232962
-1.35187e-05
0.000234495
-1.34262e-05
0.000236014
-1.33184e-05
0.000237516
-1.31951e-05
0.000239001
-1.30561e-05
0.000240466
-1.29012e-05
0.00024191
-1.27301e-05
0.000243332
-1.25424e-05
0.00024473
-1.23377e-05
0.000246102
-1.21156e-05
0.000247448
-1.18755e-05
0.000248765
-1.16169e-05
0.000250053
-1.13391e-05
0.00025131
-1.10413e-05
0.000252536
-1.07228e-05
0.00025373
-1.03825e-05
0.000254891
-1.00197e-05
0.000256018
-9.63307e-06
0.000257111
-9.22155e-06
0.000258172
-8.7839e-06
0.0002592
-8.31881e-06
0.000260197
-7.82494e-06
0.000261166
-7.30094e-06
0.000262108
-6.74549e-06
0.000263029
-6.15737e-06
0.000263933
-5.53552e-06
0.000264827
-4.87916e-06
0.00026572
-4.18792e-06
0.00026662
-3.46197e-06
0.000267541
-2.70222e-06
0.000268497
-1.91044e-06
0.000269503
-1.08938e-06
0.000270577
-2.42605e-07
0.000271738
6.2368e-07
0.000273002
1.50103e-06
0.000274389
2.37903e-06
0.000275914
3.2464e-06
0.000277592
4.08999e-06
0.000279427
4.89566e-06
0.000281419
5.64897e-06
0.000283558
6.33633e-06
6.9468e-06
0.000285824
0.000196135
-1.38429e-06
0.000196414
-2.74465e-06
0.000196823
-3.93094e-06
0.000197349
-4.98861e-06
0.000197981
-5.94065e-06
0.00019871
-6.80232e-06
0.000199527
-7.58626e-06
0.000200426
-8.3029e-06
0.000201398
-8.96058e-06
0.000202439
-9.56604e-06
0.000203542
-1.01248e-05
0.000204702
-1.06415e-05
0.000205916
-1.11199e-05
0.00020718
-1.15633e-05
0.000208488
-1.19743e-05
0.000209838
-1.23553e-05
0.000211226
-1.27082e-05
0.00021265
-1.30348e-05
0.000214106
-1.33363e-05
0.000215591
-1.36141e-05
0.000217103
-1.38693e-05
0.000218639
-1.41026e-05
0.000220197
-1.4315e-05
0.000221774
-1.45071e-05
0.000223367
-1.46794e-05
0.000224976
-1.48325e-05
0.000226597
-1.49669e-05
0.000228229
-1.50829e-05
0.000229869
-1.51808e-05
0.000231515
-1.52609e-05
0.000233165
-1.53236e-05
0.000234817
-1.53689e-05
0.00023647
-1.53971e-05
0.000238122
-1.54082e-05
0.00023977
-1.54025e-05
0.000241412
-1.538e-05
0.000243048
-1.53406e-05
0.000244675
-1.52846e-05
0.000246291
-1.52118e-05
0.000247895
-1.51222e-05
0.000249485
-1.50157e-05
0.000251059
-1.48923e-05
0.000252616
-1.47518e-05
0.000254154
-1.4594e-05
0.000255672
-1.44188e-05
0.000257168
-1.42259e-05
0.000258641
-1.40149e-05
0.00026009
-1.37857e-05
0.000261512
-1.35377e-05
0.000262908
-1.32706e-05
0.000264275
-1.29839e-05
0.000265613
-1.26771e-05
0.000266922
-1.23495e-05
0.0002682
-1.20006e-05
0.000269447
-1.16297e-05
0.000270664
-1.1236e-05
0.00027185
-1.08189e-05
0.000273006
-1.03774e-05
0.000274134
-9.91096e-06
0.000275234
-9.41868e-06
0.000276309
-8.8999e-06
0.000277362
-8.35401e-06
0.000278397
-7.78054e-06
0.000279419
-7.17924e-06
0.000280434
-6.55014e-06
0.000281449
-5.89364e-06
0.000282471
-5.21063e-06
0.000283512
-4.50259e-06
0.000284582
-3.77172e-06
0.000285693
-3.02103e-06
0.000286858
-2.25441e-06
0.000288092
-1.4766e-06
0.000289408
-6.92844e-07
0.000290819
9.00545e-08
0.000292335
8.63412e-07
0.000293964
1.61778e-06
0.000295711
2.34292e-06
0.000297577
3.02944e-06
0.000299558
3.66817e-06
0.000301643
4.25108e-06
4.77248e-06
0.000303818
0.000209866
-1.52329e-06
0.000210154
-3.03259e-06
0.000210576
-4.35325e-06
0.000211121
-5.53272e-06
0.000211776
-6.5959e-06
0.000212533
-7.55899e-06
0.000213383
-8.43555e-06
0.000214317
-9.23694e-06
0.000215329
-9.97233e-06
0.000216412
-1.06492e-05
0.000217562
-1.12736e-05
0.000218771
-1.18507e-05
0.000220036
-1.23848e-05
0.000221353
-1.28794e-05
0.000222717
-1.33376e-05
0.000224124
-1.3762e-05
0.000225571
-1.41548e-05
0.000227055
-1.45178e-05
0.000228572
-1.48527e-05
0.000230119
-1.51609e-05
0.000231694
-1.54435e-05
0.000233293
-1.57016e-05
0.000234915
-1.5936e-05
0.000236556
-1.61476e-05
0.000238214
-1.6337e-05
0.000239887
-1.65049e-05
0.000241572
-1.66516e-05
0.000243268
-1.67777e-05
0.000244971
-1.68836e-05
0.00024668
-1.69695e-05
0.000248393
-1.70358e-05
0.000250108
-1.70827e-05
0.000251822
-1.71105e-05
0.000253533
-1.71193e-05
0.000255241
-1.71093e-05
0.000256942
-1.70805e-05
0.000258635
-1.70332e-05
0.000260318
-1.69673e-05
0.00026199
-1.68829e-05
0.000263648
-1.678e-05
0.000265291
-1.66585e-05
0.000266918
-1.65185e-05
0.000268527
-1.63598e-05
0.000270115
-1.61824e-05
0.000271683
-1.5986e-05
0.000273228
-1.57706e-05
0.00027475
-1.5536e-05
0.000276246
-1.52818e-05
0.000277717
-1.50079e-05
0.000279161
-1.4714e-05
0.000280577
-1.43996e-05
0.000281964
-1.40646e-05
0.000283324
-1.37084e-05
0.000284654
-1.33308e-05
0.000285956
-1.29313e-05
0.00028723
-1.25094e-05
0.000288476
-1.2065e-05
0.000289696
-1.15975e-05
0.000290892
-1.11068e-05
0.000292067
-1.05925e-05
0.000293222
-1.00548e-05
0.000294361
-9.49351e-06
0.00029549
-8.90908e-06
0.000296613
-8.30205e-06
0.000297736
-7.67329e-06
0.000298867
-7.0241e-06
0.000300013
-6.35622e-06
0.000301182
-5.67194e-06
0.000302385
-4.97414e-06
0.00030363
-4.26632e-06
0.000304928
-3.55265e-06
0.00030629
-2.83792e-06
0.000307725
-2.12743e-06
0.000309242
-1.42687e-06
0.000310847
-7.41768e-07
0.000312543
-7.86087e-08
0.000314331
5.55275e-07
0.000316207
1.15332e-06
0.000318166
1.7095e-06
0.000320198
2.21889e-06
2.67868e-06
0.000322292
0.000224559
-1.66618e-06
0.000224855
-3.32874e-06
0.00022529
-4.78863e-06
0.000225852
-6.09462e-06
0.00022653
-7.27348e-06
0.000227314
-8.34235e-06
0.000228194
-9.31564e-06
0.000229163
-1.02056e-05
0.000230213
-1.10222e-05
0.000231338
-1.17736e-05
0.000232531
-1.24666e-05
0.000233788
-1.31068e-05
0.000235102
-1.36989e-05
0.00023647
-1.42469e-05
0.000237888
-1.47542e-05
0.00023935
-1.52236e-05
0.000240853
-1.56576e-05
0.000242394
-1.60584e-05
0.00024397
-1.64276e-05
0.000245576
-1.6767e-05
0.000247211
-1.70777e-05
0.000248871
-1.7361e-05
0.000250554
-1.76178e-05
0.000252256
-1.78491e-05
0.000253975
-1.80557e-05
0.000255709
-1.82381e-05
0.000257455
-1.83969e-05
0.000259211
-1.85328e-05
0.000260974
-1.86461e-05
0.000262742
-1.87372e-05
0.000264514
-1.88065e-05
0.000266286
-1.88543e-05
0.000268057
-1.88809e-05
0.000269825
-1.88864e-05
0.000271587
-1.88711e-05
0.000273342
-1.88352e-05
0.000275089
-1.87789e-05
0.000276824
-1.87021e-05
0.000278547
-1.86051e-05
0.000280255
-1.84878e-05
0.000281948
-1.83504e-05
0.000283622
-1.81929e-05
0.000285278
-1.80152e-05
0.000286914
-1.78173e-05
0.000288528
-1.75993e-05
0.000290118
-1.7361e-05
0.000291685
-1.71024e-05
0.000293227
-1.68233e-05
0.000294743
-1.65236e-05
0.000296233
-1.62033e-05
0.000297696
-1.58621e-05
0.000299132
-1.55e-05
0.00030054
-1.51168e-05
0.000301922
-1.47125e-05
0.000303278
-1.42868e-05
0.000304609
-1.38399e-05
0.000305916
-1.33716e-05
0.000307201
-1.28821e-05
0.000308466
-1.23716e-05
0.000309714
-1.18404e-05
0.000310949
-1.12891e-05
0.000312173
-1.07182e-05
0.000313393
-1.01286e-05
0.000314613
-9.52171e-06
0.000315839
-8.89884e-06
0.000317077
-8.2619e-06
0.000318334
-7.61312e-06
0.000319617
-6.95514e-06
0.000320934
-6.29106e-06
0.000322293
-5.62437e-06
0.000323699
-4.95899e-06
0.00032516
-4.2992e-06
0.000326683
-3.64954e-06
0.000328271
-3.01475e-06
0.000329928
-2.39953e-06
0.000331659
-1.80854e-06
0.000333459
-1.2455e-06
0.000335327
-7.14379e-07
0.000337255
-2.18641e-07
0.000339235
2.38905e-07
6.56768e-07
0.000341257
0.000240279
-1.8128e-06
0.000240583
-3.63269e-06
0.000241031
-5.2363e-06
0.00024161
-6.6733e-06
0.000242309
-7.97212e-06
0.000243118
-9.15089e-06
0.000244027
-1.02248e-05
0.000245029
-1.12069e-05
0.000246115
-1.21081e-05
0.000247279
-1.29371e-05
0.000248514
-1.37015e-05
0.000249815
-1.44072e-05
0.000251176
-1.50595e-05
0.000252593
-1.56629e-05
0.00025406
-1.6221e-05
0.000255574
-1.67369e-05
0.00025713
-1.72135e-05
0.000258726
-1.7653e-05
0.000260356
-1.80575e-05
0.000262018
-1.84287e-05
0.000263709
-1.8768e-05
0.000265426
-1.90768e-05
0.000267165
-1.93563e-05
0.000268924
-1.96073e-05
0.0002707
-1.98308e-05
0.00027249
-2.00275e-05
0.000274292
-2.01982e-05
0.000276103
-2.03433e-05
0.000277921
-2.04634e-05
0.000279744
-2.05591e-05
0.000281568
-2.06306e-05
0.000283393
-2.06784e-05
0.000285216
-2.07029e-05
0.000287034
-2.07042e-05
0.000288847
-2.06827e-05
0.000290651
-2.06386e-05
0.000292445
-2.05722e-05
0.000294227
-2.04836e-05
0.000295995
-2.03729e-05
0.000297748
-2.02404e-05
0.000299485
-2.00862e-05
0.000301203
-1.99103e-05
0.000302901
-1.9713e-05
0.000304579
-1.94942e-05
0.000306234
-1.92541e-05