/*--------------------------------*- C++ -*----------------------------------*\
| =========                 |                                                 |
| \\      /  F ield         | OpenFOAM: The Open Source CFD Toolbox           |
|  \\    /   O peration     | Version:  2106                                  |
|   \\  /    A nd           | Website:  www.openfoam.com                      |
|    \\/     M anipulation  |                                                 |
\*---------------------------------------------------------------------------*/
FoamFile
{
    version     2.0;
    format      ascii;
    arch        "LSB;label=32;scalar=64";
    class       volScalarField;
    location    "5.4";
    object      T;
}
// * * * * * * * * * * * * * * * * * * * * * * * * * * * * * * * * * * * * * //

dimensions      [0 0 0 1 0 0 0];

internalField   nonuniform List<scalar> 
12013
(
300.003
300.01
300.016
300.024
300.031
300.039
300.047
300.055
300.064
300.073
300.082
300.092
300.102
300.113
300.124
300.135
300.147
300.16
300.173
300.186
300.2
300.214
300.229
300.244
300.26
300.277
300.294
300.311
300.33
300.349
300.368
300.388
300.409
300.43
300.452
300.475
300.498
300.522
300.547
300.573
300.599
300.626
300.654
300.683
300.712
300.743
300.774
300.806
300.839
300.873
300.908
300.944
300.981
301.02
301.059
301.099
301.141
301.183
301.227
301.273
301.319
301.367
301.417
301.468
301.521
301.576
301.632
301.691
301.752
301.815
301.881
301.95
302.022
302.098
302.178
302.263
302.354
302.453
302.562
302.686
302.834
300.003
300.01
300.016
300.024
300.031
300.039
300.047
300.055
300.064
300.073
300.082
300.092
300.102
300.113
300.124
300.135
300.147
300.16
300.173
300.186
300.2
300.214
300.229
300.244
300.26
300.277
300.294
300.311
300.33
300.348
300.368
300.388
300.409
300.43
300.452
300.475
300.498
300.522
300.547
300.573
300.599
300.626
300.654
300.683
300.712
300.743
300.774
300.806
300.839
300.873
300.908
300.944
300.981
301.019
301.059
301.099
301.14
301.183
301.227
301.272
301.319
301.367
301.416
301.468
301.52
301.575
301.632
301.69
301.751
301.814
301.879
301.948
302.02
302.095
302.174
302.258
302.348
302.444
302.549
302.664
302.791
300.003
300.01
300.016
300.024
300.031
300.039
300.047
300.055
300.064
300.073
300.082
300.092
300.102
300.113
300.124
300.135
300.147
300.16
300.173
300.186
300.2
300.214
300.229
300.244
300.26
300.277
300.294
300.311
300.33
300.348
300.368
300.388
300.409
300.43
300.452
300.475
300.498
300.522
300.547
300.572
300.599
300.626
300.654
300.683
300.712
300.742
300.774
300.806
300.839
300.873
300.908
300.944
300.981
301.019
301.058
301.098
301.14
301.182
301.226
301.271
301.318
301.366
301.415
301.466
301.519
301.573
301.629
301.688
301.748
301.811
301.876
301.944
302.014
302.088
302.166
302.248
302.335
302.427
302.525
302.629
302.737
300.003
300.01
300.016
300.024
300.031
300.039
300.047
300.055
300.064
300.073
300.082
300.092
300.102
300.113
300.124
300.135
300.147
300.16
300.173
300.186
300.2
300.214
300.229
300.244
300.26
300.277
300.294
300.311
300.33
300.348
300.368
300.388
300.408
300.43
300.452
300.474
300.498
300.522
300.547
300.572
300.599
300.626
300.654
300.682
300.712
300.742
300.773
300.805
300.838
300.872
300.907
300.943
300.98
301.018
301.057
301.097
301.139
301.181
301.225
301.27
301.316
301.364
301.413
301.464
301.516
301.57
301.626
301.684
301.744
301.805
301.87
301.936
302.006
302.078
302.154
302.233
302.316
302.402
302.492
302.585
302.679
300.003
300.01
300.016
300.024
300.031
300.039
300.047
300.055
300.064
300.073
300.082
300.092
300.102
300.113
300.124
300.135
300.147
300.16
300.173
300.186
300.2
300.214
300.229
300.244
300.26
300.277
300.294
300.311
300.329
300.348
300.368
300.388
300.408
300.43
300.452
300.474
300.498
300.522
300.546
300.572
300.598
300.625
300.653
300.682
300.711
300.742
300.773
300.805
300.838
300.872
300.906
300.942
300.979
301.017
301.056
301.096
301.137
301.179
301.223
301.268
301.314
301.361
301.41
301.46
301.512
301.566
301.621
301.678
301.737
301.798
301.861
301.926
301.994
302.064
302.137
302.213
302.291
302.371
302.454
302.537
302.62
300.003
300.01
300.016
300.024
300.031
300.039
300.047
300.055
300.064
300.073
300.082
300.092
300.102
300.113
300.124
300.135
300.147
300.16
300.173
300.186
300.2
300.214
300.229
300.244
300.26
300.277
300.294
300.311
300.329
300.348
300.367
300.387
300.408
300.429
300.451
300.474
300.497
300.521
300.546
300.572
300.598
300.625
300.653
300.681
300.711
300.741
300.772
300.804
300.837
300.87
300.905
300.941
300.978
301.015
301.054
301.094
301.135
301.177
301.22
301.265
301.31
301.357
301.406
301.456
301.507
301.56
301.614
301.671
301.728
301.788
301.85
301.913
301.979
302.046
302.116
302.187
302.26
302.335
302.411
302.486
302.56
300.003
300.01
300.016
300.024
300.031
300.039
300.047
300.055
300.064
300.073
300.082
300.092
300.102
300.113
300.124
300.135
300.147
300.16
300.172
300.186
300.2
300.214
300.229
300.244
300.26
300.276
300.293
300.311
300.329
300.348
300.367
300.387
300.408
300.429
300.451
300.474
300.497
300.521
300.546
300.571
300.597
300.624
300.652
300.68
300.71
300.74
300.771
300.803
300.835
300.869
300.904
300.939
300.976
301.013
301.052
301.091
301.132
301.174
301.217
301.261
301.306
301.353
301.4
301.45
301.5
301.552
301.606
301.661
301.717
301.775
301.835
301.897
301.96
302.024
302.09
302.157
302.226
302.295
302.364
302.433
302.5
300.003
300.01
300.016
300.024
300.031
300.039
300.047
300.055
300.064
300.073
300.082
300.092
300.102
300.113
300.124
300.135
300.147
300.16
300.172
300.186
300.199
300.214
300.229
300.244
300.26
300.276
300.293
300.311
300.329
300.348
300.367
300.387
300.407
300.429
300.451
300.473
300.496
300.52
300.545
300.57
300.596
300.623
300.651
300.679
300.708
300.739
300.769
300.801
300.834
300.867
300.902
300.937
300.973
301.01
301.049
301.088
301.128
301.17
301.212
301.256
301.3
301.346
301.394
301.442
301.492
301.543
301.595
301.649
301.704
301.76
301.818
301.877
301.937
301.998
302.061
302.124
302.188
302.252
302.315
302.378
302.44
300.003
300.01
300.016
300.024
300.031
300.039
300.047
300.055
300.064
300.073
300.082
300.092
300.102
300.113
300.124
300.135
300.147
300.159
300.172
300.186
300.199
300.214
300.228
300.244
300.26
300.276
300.293
300.31
300.329
300.347
300.367
300.386
300.407
300.428
300.45
300.472
300.496
300.52
300.544
300.569
300.595
300.622
300.65
300.678
300.707
300.737
300.768
300.799
300.832
300.865
300.899
300.934
300.97
301.007
301.045
301.084
301.124
301.165
301.206
301.25
301.294
301.339
301.385
301.433
301.481
301.531
301.582
301.634
301.687
301.742
301.797
301.853
301.911
301.969
302.028
302.087
302.146
302.205
302.264
302.322
302.379
300.003
300.01
300.016
300.024
300.031
300.039
300.047
300.055
300.064
300.073
300.082
300.092
300.102
300.113
300.124
300.135
300.147
300.159
300.172
300.185
300.199
300.213
300.228
300.243
300.259
300.276
300.293
300.31
300.328
300.347
300.366
300.386
300.406
300.427
300.449
300.472
300.495
300.519
300.543
300.568
300.594
300.621
300.648
300.676
300.705
300.735
300.765
300.797
300.829
300.862
300.896
300.931
300.966
301.003
301.04
301.079
301.118
301.158
301.2
301.242
301.285
301.33
301.375
301.421
301.469
301.517
301.566
301.617
301.668
301.72
301.773
301.827
301.881
301.936
301.992
302.047
302.102
302.157
302.212
302.265
302.318
300.003
300.01
300.016
300.023
300.031
300.038
300.046
300.055
300.063
300.073
300.082
300.092
300.102
300.112
300.123
300.135
300.147
300.159
300.172
300.185
300.199
300.213
300.228
300.243
300.259
300.275
300.292
300.31
300.328
300.346
300.365
300.385
300.406
300.427
300.448
300.471
300.494
300.517
300.542
300.567
300.593
300.619
300.646
300.674
300.703
300.733
300.763
300.794
300.826
300.858
300.892
300.926
300.962
300.998
301.035
301.072
301.111
301.151
301.191
301.233
301.275
301.319
301.363
301.408
301.454
301.501
301.548
301.597
301.646
301.696
301.747
301.798
301.849
301.901
301.953
302.004
302.056
302.107
302.157
302.207
302.256
300.003
300.01
300.016
300.023
300.031
300.038
300.046
300.055
300.063
300.072
300.082
300.092
300.102
300.112
300.123
300.135
300.147
300.159
300.172
300.185
300.199
300.213
300.228
300.243
300.258
300.275
300.292
300.309
300.327
300.346
300.365
300.384
300.405
300.426
300.447
300.47
300.492
300.516
300.54
300.565
300.591
300.617
300.644
300.672
300.7
300.73
300.76
300.79
300.822
300.854
300.887
300.921
300.956
300.992
301.028
301.065
301.103
301.142
301.182
301.222
301.264
301.306
301.349
301.392
301.437
301.482
301.528
301.574
301.622
301.669
301.717
301.765
301.814
301.862
301.911
301.959
302.007
302.055
302.102
302.148
302.194
300.003
300.01
300.016
300.023
300.031
300.038
300.046
300.055
300.063
300.072
300.082
300.091
300.102
300.112
300.123
300.135
300.146
300.159
300.171
300.185
300.198
300.212
300.227
300.242
300.258
300.274
300.291
300.308
300.326
300.345
300.364
300.383
300.404
300.424
300.446
300.468
300.491
300.514
300.538
300.563
300.588
300.615
300.641
300.669
300.697
300.726
300.756
300.786
300.817
300.849
300.882
300.915
300.949
300.984
301.02
301.057
301.094
301.132
301.17
301.21
301.25
301.291
301.333
301.375
301.418
301.461
301.505
301.549
301.594
301.639
301.685
301.73
301.776
301.822
301.867
301.912
301.957
302.002
302.045
302.088
302.131
300.003
300.01
300.016
300.023
300.031
300.038
300.046
300.055
300.063
300.072
300.082
300.091
300.101
300.112
300.123
300.134
300.146
300.158
300.171
300.184
300.198
300.212
300.227
300.242
300.257
300.274
300.29
300.308
300.325
300.344
300.363
300.382
300.402
300.423
300.444
300.466
300.489
300.512
300.536
300.561
300.586
300.612
300.638
300.665
300.693
300.722
300.751
300.781
300.812
300.843
300.875
300.908
300.942
300.976
301.011
301.047
301.083
301.12
301.158
301.196
301.235
301.274
301.314
301.355
301.396
301.438
301.48
301.522
301.565
301.607
301.65
301.693
301.736
301.779
301.822
301.864
301.906
301.947
301.988
302.028
302.067
300.003
300.01
300.016
300.023
300.031
300.038
300.046
300.054
300.063
300.072
300.081
300.091
300.101
300.112
300.123
300.134
300.146
300.158
300.171
300.184
300.197
300.211
300.226
300.241
300.257
300.273
300.289
300.307
300.324
300.343
300.361
300.381
300.401
300.421
300.443
300.464
300.487
300.51
300.533
300.558
300.583
300.608
300.634
300.661
300.689
300.717
300.746
300.775
300.806
300.836
300.868
300.9
300.933
300.966
301
301.035
301.07
301.106
301.143
301.18
301.217
301.255
301.294
301.333
301.372
301.412
301.452
301.492
301.532
301.573
301.613
301.654
301.694
301.734
301.774
301.813
301.853
301.891
301.929
301.967
302.003
300.003
300.01
300.016
300.023
300.031
300.038
300.046
300.054
300.063
300.072
300.081
300.091
300.101
300.111
300.122
300.134
300.145
300.157
300.17
300.183
300.197
300.211
300.225
300.24
300.256
300.272
300.288
300.305
300.323
300.341
300.36
300.379
300.399
300.419
300.44
300.462
300.484
300.507
300.53
300.554
300.579
300.604
300.63
300.656
300.684
300.711
300.74
300.769
300.798
300.828
300.859
300.891
300.923
300.955
300.988
301.022
301.056
301.091
301.126
301.162
301.198
301.235
301.272
301.309
301.346
301.384
301.422
301.46
301.498
301.536
301.574
301.612
301.65
301.688
301.725
301.762
301.798
301.834
301.87
301.905
301.939
300.003
300.01
300.016
300.023
300.03
300.038
300.046
300.054
300.063
300.072
300.081
300.091
300.101
300.111
300.122
300.133
300.145
300.157
300.17
300.183
300.196
300.21
300.224
300.239
300.255
300.271
300.287
300.304
300.321
300.339
300.358
300.377
300.397
300.417
300.438
300.459
300.481
300.504
300.527
300.55
300.575
300.599
300.625
300.651
300.678
300.705
300.733
300.761
300.79
300.819
300.849
300.88
300.911
300.943
300.975
301.007
301.04
301.074
301.108
301.142
301.177
301.212
301.247
301.282
301.318
301.354
301.39
301.426
301.462
301.498
301.533
301.569
301.604
301.64
301.674
301.709
301.743
301.777
301.81
301.842
301.874
300.003
300.01
300.016
300.023
300.03
300.038
300.046
300.054
300.063
300.071
300.081
300.09
300.1
300.111
300.121
300.133
300.144
300.156
300.169
300.182
300.195
300.209
300.223
300.238
300.253
300.269
300.286
300.302
300.32
300.338
300.356
300.375
300.394
300.414
300.435
300.456
300.478
300.5
300.522
300.546
300.57
300.594
300.619
300.645
300.671
300.697
300.724
300.752
300.78
300.809
300.838
300.868
300.898
300.929
300.96
300.991
301.023
301.055
301.088
301.12
301.154
301.187
301.22
301.254
301.288
301.322
301.356
301.39
301.423
301.457
301.491
301.524
301.557
301.59
301.623
301.655
301.687
301.718
301.749
301.78
301.809
300.003
300.009
300.016
300.023
300.03
300.038
300.046
300.054
300.062
300.071
300.08
300.09
300.1
300.11
300.121
300.132
300.144
300.156
300.168
300.181
300.194
300.208
300.222
300.237
300.252
300.268
300.284
300.301
300.318
300.335
300.354
300.372
300.391
300.411
300.431
300.452
300.473
300.495
300.518
300.541
300.564
300.588
300.612
300.637
300.663
300.689
300.715
300.742
300.77
300.797
300.826
300.854
300.884
300.913
300.943
300.973
301.004
301.035
301.066
301.097
301.128
301.16
301.192
301.224
301.256
301.288
301.32
301.352
301.383
301.415
301.447
301.478
301.509
301.54
301.57
301.6
301.63
301.659
301.688
301.717
301.744
300.003
300.009
300.016
300.023
300.03
300.038
300.045
300.054
300.062
300.071
300.08
300.089
300.099
300.11
300.12
300.131
300.143
300.155
300.167
300.18
300.193
300.207
300.221
300.235
300.25
300.266
300.282
300.298
300.315
300.333
300.351
300.369
300.388
300.407
300.427
300.448
300.469
300.49
300.512
300.535
300.557
300.581
300.605
300.629
300.654
300.679
300.705
300.731
300.758
300.785
300.812
300.84
300.868
300.896
300.925
300.954
300.983
301.012
301.042
301.072
301.102
301.132
301.162
301.192
301.222
301.252
301.282
301.312
301.342
301.372
301.401
301.431
301.46
301.488
301.517
301.545
301.573
301.6
301.627
301.653
301.679
300.003
300.009
300.016
300.023
300.03
300.037
300.045
300.053
300.062
300.07
300.08
300.089
300.099
300.109
300.12
300.131
300.142
300.154
300.166
300.179
300.192
300.205
300.219
300.234
300.249
300.264
300.28
300.296
300.313
300.33
300.347
300.366
300.384
300.403
300.423
300.443
300.463
300.484
300.506
300.528
300.55
300.573
300.596
300.62
300.644
300.669
300.693
300.719
300.744
300.77
300.797
300.823
300.85
300.877
300.905
300.932
300.96
300.988
301.016
301.045
301.073
301.102
301.13
301.158
301.187
301.215
301.243
301.272
301.299
301.327
301.355
301.382
301.409
301.436
301.463
301.489
301.515
301.54
301.565
301.59
301.615
300.003
300.009
300.016
300.023
300.03
300.037
300.045
300.053
300.061
300.07
300.079
300.088
300.098
300.108
300.119
300.13
300.141
300.153
300.165
300.177
300.19
300.204
300.217
300.232
300.246
300.261
300.277
300.293
300.31
300.326
300.344
300.362
300.38
300.399
300.418
300.437
300.457
300.478
300.499
300.52
300.542
300.564
300.587
300.61
300.633
300.657
300.681
300.705
300.73
300.755
300.78
300.806
300.831
300.857
300.883
300.91
300.936
300.963
300.99
301.016
301.043
301.07
301.097
301.123
301.15
301.177
301.203
301.23
301.256
301.282
301.308
301.333
301.358
301.383
301.408
301.433
301.457
301.481
301.504
301.527
301.55
300.003
300.009
300.016
300.023
300.03
300.037
300.045
300.053
300.061
300.069
300.078
300.088
300.097
300.107
300.118
300.129
300.14
300.151
300.163
300.176
300.189
300.202
300.215
300.229
300.244
300.259
300.274
300.29
300.306
300.323
300.34
300.357
300.375
300.393
300.412
300.431
300.451
300.471
300.491
300.512
300.533
300.554
300.576
300.599
300.621
300.644
300.667
300.69
300.714
300.738
300.762
300.787
300.811
300.836
300.861
300.886
300.911
300.936
300.961
300.987
301.012
301.037
301.062
301.087
301.112
301.137
301.162
301.187
301.211
301.236
301.26
301.283
301.307
301.33
301.354
301.376
301.399
301.421
301.443
301.464
301.486
300.003
300.009
300.016
300.022
300.029
300.037
300.044
300.052
300.06
300.069
300.078
300.087
300.097
300.107
300.117
300.127
300.139
300.15
300.162
300.174
300.187
300.2
300.213
300.227
300.241
300.256
300.271
300.286
300.302
300.318
300.335
300.352
300.37
300.387
300.406
300.424
300.443
300.463
300.482
300.503
300.523
300.544
300.565
300.586
300.608
300.63
300.652
300.674
300.697
300.72
300.743
300.766
300.79
300.813
300.837
300.86
300.884
300.908
300.932
300.956
300.979
301.003
301.027
301.05
301.074
301.097
301.12
301.143
301.166
301.189
301.211
301.234
301.256
301.277
301.299
301.32
301.341
301.362
301.382
301.402
301.422
300.003
300.009
300.016
300.022
300.029
300.036
300.044
300.052
300.06
300.068
300.077
300.086
300.096
300.105
300.116
300.126
300.137
300.148
300.16
300.172
300.184
300.197
300.21
300.224
300.238
300.252
300.267
300.282
300.298
300.314
300.33
300.346
300.363
300.381
300.399
300.417
300.435
300.454
300.473
300.492
300.512
300.532
300.552
300.573
300.594
300.615
300.636
300.657
300.679
300.701
300.723
300.745
300.767
300.789
300.812
300.834
300.856
300.879
300.901
300.923
300.946
300.968
300.99
301.012
301.034
301.056
301.078
301.099
301.121
301.142
301.163
301.183
301.204
301.224
301.244
301.264
301.284
301.303
301.322
301.341
301.359
300.003
300.009
300.015
300.022
300.029
300.036
300.043
300.051
300.059
300.068
300.076
300.085
300.095
300.104
300.114
300.125
300.135
300.146
300.158
300.17
300.182
300.194
300.207
300.221
300.234
300.248
300.263
300.278
300.293
300.308
300.324
300.34
300.357
300.374
300.391
300.408
300.426
300.444
300.463
300.481
300.5
300.52
300.539
300.559
300.579
300.599
300.619
300.639
300.66
300.681
300.701
300.722
300.743
300.764
300.785
300.806
300.828
300.849
300.87
300.891
300.912
300.932
300.953
300.974
300.994
301.015
301.035
301.055
301.075
301.095
301.114
301.134
301.153
301.172
301.19
301.209
301.227
301.245
301.262
301.28
301.297
300.003
300.009
300.015
300.022
300.028
300.036
300.043
300.05
300.058
300.067
300.075
300.084
300.093
300.103
300.113
300.123
300.133
300.144
300.156
300.167
300.179
300.191
300.204
300.217
300.23
300.244
300.258
300.273
300.287
300.302
300.318
300.334
300.35
300.366
300.383
300.399
300.417
300.434
300.452
300.47
300.488
300.506
300.525
300.544
300.563
300.582
300.601
300.62
300.64
300.66
300.679
300.699
300.719
300.739
300.758
300.778
300.798
300.818
300.838
300.857
300.877
300.896
300.916
300.935
300.954
300.973
300.992
301.011
301.029
301.048
301.066
301.084
301.102
301.119
301.137
301.154
301.171
301.187
301.204
301.22
301.236
300.003
300.009
300.015
300.021
300.028
300.035
300.042
300.05
300.058
300.066
300.074
300.083
300.092
300.101
300.111
300.121
300.131
300.142
300.153
300.164
300.176
300.188
300.201
300.213
300.226
300.24
300.253
300.267
300.282
300.296
300.311
300.326
300.342
300.357
300.373
300.39
300.406
300.423
300.44
300.457
300.475
300.492
300.51
300.528
300.546
300.564
300.582
300.601
300.619
300.638
300.656
300.675
300.694
300.712
300.731
300.75
300.768
300.787
300.805
300.824
300.842
300.86
300.878
300.896
300.914
300.932
300.95
300.967
300.984
301.001
301.018
301.035
301.051
301.068
301.084
301.1
301.116
301.131
301.146
301.162
301.176
300.003
300.009
300.015
300.021
300.028
300.035
300.042
300.049
300.057
300.065
300.073
300.082
300.09
300.1
300.109
300.119
300.129
300.14
300.15
300.161
300.173
300.185
300.197
300.209
300.222
300.235
300.248
300.261
300.275
300.289
300.304
300.318
300.333
300.348
300.364
300.38
300.395
300.411
300.428
300.444
300.461
300.477
300.494
300.511
300.528
300.546
300.563
300.58
300.598
300.615
300.633
300.65
300.668
300.685
300.703
300.72
300.738
300.755
300.773
300.79
300.807
300.824
300.841
300.858
300.874
300.891
300.907
300.924
300.94
300.956
300.971
300.987
301.002
301.017
301.032
301.047
301.062
301.076
301.091
301.105
301.118
300.003
300.009
300.015
300.021
300.027
300.034
300.041
300.048
300.056
300.064
300.072
300.08
300.089
300.098
300.107
300.117
300.127
300.137
300.147
300.158
300.169
300.181
300.192
300.204
300.217
300.229
300.242
300.255
300.269
300.282
300.296
300.31
300.324
300.339
300.354
300.369
300.384
300.399
300.415
300.43
300.446
300.462
300.478
300.494
300.51
300.527
300.543
300.56
300.576
300.593
300.609
300.626
300.642
300.658
300.675
300.691
300.708
300.724
300.74
300.756
300.772
300.788
300.804
300.82
300.835
300.85
300.866
300.881
300.896
300.911
300.925
300.94
300.954
300.968
300.982
300.996
301.01
301.023
301.036
301.049
301.062
300.003
300.008
300.014
300.02
300.027
300.033
300.04
300.047
300.055
300.062
300.07
300.079
300.087
300.096
300.105
300.114
300.124
300.134
300.144
300.155
300.165
300.177
300.188
300.2
300.211
300.224
300.236
300.249
300.261
300.275
300.288
300.301
300.315
300.329
300.343
300.358
300.372
300.387
300.401
300.416
300.431
300.446
300.462
300.477
300.492
300.508
300.523
300.539
300.554
300.57
300.585
300.601
300.616
300.632
300.647
300.662
300.678
300.693
300.708
300.723
300.738
300.753
300.768
300.782
300.797
300.811
300.825
300.839
300.853
300.867
300.881
300.894
300.907
300.921
300.934
300.946
300.959
300.972
300.984
300.996
301.008
300.003
300.008
300.014
300.02
300.026
300.033
300.039
300.046
300.054
300.061
300.069
300.077
300.085
300.094
300.103
300.112
300.121
300.131
300.141
300.151
300.161
300.172
300.183
300.194
300.206
300.218
300.23
300.242
300.254
300.267
300.28
300.293
300.306
300.319
300.333
300.346
300.36
300.374
300.388
300.402
300.416
300.431
300.445
300.459
300.474
300.489
300.503
300.518
300.532
300.547
300.561
300.576
300.591
300.605
300.619
300.634
300.648
300.662
300.677
300.691
300.705
300.718
300.732
300.746
300.759
300.773
300.786
300.799
300.812
300.825
300.838
300.85
300.863
300.875
300.887
300.899
300.911
300.922
300.934
300.945
300.956
300.003
300.008
300.014
300.02
300.026
300.032
300.039
300.045
300.052
300.06
300.067
300.075
300.083
300.092
300.1
300.109
300.118
300.128
300.137
300.147
300.157
300.168
300.178
300.189
300.2
300.212
300.223
300.235
300.247
300.259
300.271
300.283
300.296
300.309
300.322
300.335
300.348
300.361
300.374
300.388
300.401
300.415
300.428
300.442
300.456
300.47
300.483
300.497
300.511
300.525
300.538
300.552
300.566
300.579
300.593
300.606
300.62
300.633
300.646
300.659
300.672
300.685
300.698
300.711
300.723
300.736
300.748
300.761
300.773
300.785
300.796
300.808
300.82
300.831
300.842
300.853
300.864
300.875
300.886
300.896
300.907
300.003
300.008
300.013
300.019
300.025
300.031
300.038
300.044
300.051
300.058
300.066
300.073
300.081
300.089
300.098
300.106
300.115
300.124
300.134
300.143
300.153
300.163
300.173
300.184
300.194
300.205
300.216
300.228
300.239
300.251
300.262
300.274
300.286
300.298
300.311
300.323
300.336
300.348
300.361
300.374
300.386
300.399
300.412
300.425
300.438
300.451
300.464
300.477
300.49
300.503
300.516
300.529
300.541
300.554
300.567
300.58
300.592
300.605
300.617
300.629
300.642
300.654
300.666
300.678
300.689
300.701
300.713
300.724
300.735
300.747
300.758
300.768
300.779
300.79
300.8
300.811
300.821
300.831
300.841
300.851
300.861
300.003
300.008
300.013
300.019
300.024
300.031
300.037
300.043
300.05
300.057
300.064
300.072
300.079
300.087
300.095
300.104
300.112
300.121
300.13
300.139
300.149
300.159
300.168
300.179
300.189
300.199
300.21
300.221
300.232
300.243
300.254
300.265
300.277
300.289
300.3
300.312
300.324
300.336
300.348
300.36
300.372
300.384
300.397
300.409
300.421
300.433
300.446
300.458
300.47
300.482
300.494
300.507
300.519
300.531
300.543
300.554
300.566
300.578
300.59
300.601
300.613
300.624
300.635
300.646
300.658
300.668
300.679
300.69
300.701
300.711
300.721
300.732
300.742
300.752
300.761
300.771
300.781
300.79
300.8
300.809
300.818
300.002
300.008
300.013
300.018
300.024
300.03
300.036
300.042
300.049
300.056
300.063
300.07
300.077
300.085
300.093
300.101
300.109
300.118
300.127
300.136
300.145
300.154
300.164
300.173
300.183
300.193
300.204
300.214
300.225
300.235
300.246
300.257
300.268
300.279
300.29
300.301
300.313
300.324
300.336
300.347
300.359
300.37
300.382
300.394
300.405
300.417
300.428
300.44
300.452
300.463
300.475
300.486
300.498
300.509
300.52
300.531
300.542
300.553
300.564
300.575
300.586
300.597
300.607
300.618
300.628
300.639
300.649
300.659
300.669
300.679
300.688
300.698
300.707
300.717
300.726
300.735
300.744
300.753
300.762
300.77
300.779
300.002
300.007
300.012
300.018
300.023
300.029
300.035
300.041
300.048
300.054
300.061
300.068
300.075
300.083
300.091
300.098
300.107
300.115
300.123
300.132
300.141
300.15
300.159
300.169
300.178
300.188
300.198
300.208
300.218
300.228
300.239
300.249
300.26
300.27
300.281
300.292
300.303
300.314
300.325
300.336
300.347
300.358
300.369
300.38
300.391
300.402
300.413
300.424
300.435
300.446
300.457
300.468
300.478
300.489
300.5
300.511
300.521
300.532
300.542
300.552
300.562
300.572
300.583
300.592
300.602
300.612
300.622
300.631
300.64
300.65
300.659
300.668
300.677
300.686
300.694
300.703
300.712
300.72
300.728
300.736
300.744
300.002
300.007
300.012
300.017
300.023
300.028
300.034
300.04
300.047
300.053
300.06
300.067
300.074
300.081
300.088
300.096
300.104
300.112
300.12
300.129
300.137
300.146
300.155
300.164
300.174
300.183
300.193
300.202
300.212
300.222
300.232
300.242
300.252
300.262
300.273
300.283
300.294
300.304
300.315
300.325
300.336
300.346
300.357
300.368
300.378
300.389
300.399
300.41
300.42
300.431
300.441
300.452
300.462
300.472
300.482
300.493
300.503
300.513
300.522
300.532
300.542
300.552
300.561
300.571
300.58
300.589
300.598
300.607
300.616
300.625
300.634
300.642
300.651
300.659
300.668
300.676
300.684
300.692
300.7
300.707
300.715
300.002
300.007
300.012
300.017
300.022
300.028
300.034
300.04
300.046
300.052
300.059
300.065
300.072
300.079
300.087
300.094
300.102
300.11
300.118
300.126
300.135
300.143
300.152
300.161
300.17
300.179
300.188
300.198
300.207
300.217
300.226
300.236
300.246
300.256
300.266
300.276
300.286
300.296
300.307
300.317
300.327
300.337
300.348
300.358
300.368
300.378
300.388
300.399
300.409
300.419
300.429
300.439
300.449
300.459
300.468
300.478
300.488
300.497
300.507
300.516
300.526
300.535
300.544
300.553
300.562
300.571
300.58
300.588
300.597
300.605
300.614
300.622
300.63
300.638
300.646
300.654
300.662
300.669
300.677
300.684
300.691
300.002
300.007
300.012
300.017
300.022
300.028
300.033
300.039
300.045
300.051
300.058
300.064
300.071
300.078
300.085
300.093
300.1
300.108
300.116
300.124
300.132
300.141
300.149
300.158
300.167
300.176
300.185
300.194
300.204
300.213
300.223
300.232
300.242
300.251
300.261
300.271
300.281
300.291
300.301
300.311
300.321
300.331
300.341
300.351
300.361
300.371
300.381
300.39
300.4
300.41
300.42
300.43
300.439
300.449
300.458
300.468
300.477
300.486
300.496
300.505
300.514
300.523
300.532
300.54
300.549
300.558
300.566
300.575
300.583
300.591
300.599
300.607
300.615
300.623
300.631
300.638
300.646
300.653
300.66
300.667
300.675
300.002
300.007
300.012
300.017
300.022
300.027
300.033
300.039
300.045
300.051
300.057
300.064
300.071
300.078
300.085
300.092
300.1
300.107
300.115
300.123
300.131
300.14
300.148
300.157
300.165
300.174
300.183
300.192
300.202
300.211
300.22
300.23
300.239
300.249
300.259
300.268
300.278
300.288
300.298
300.308
300.317
300.327
300.337
300.347
300.357
300.367
300.376
300.386
300.396
300.405
300.415
300.425
300.434
300.443
300.453
300.462
300.471
300.481
300.49
300.499
300.508
300.516
300.525
300.534
300.542
300.551
300.559
300.567
300.576
300.584
300.592
300.599
300.607
300.615
300.622
300.63
300.637
300.644
300.652
300.659
300.666
303.029
303.159
303.236
303.309
303.372
303.424
303.459
303.499
303.539
303.576
303.608
303.642
303.677
303.711
303.745
303.778
303.809
303.837
303.867
303.897
303.926
303.955
303.985
304.014
304.043
304.072
304.1
304.128
304.156
304.183
304.21
304.237
304.263
304.29
304.316
304.341
304.367
304.393
304.417
304.442
304.467
304.491
304.516
304.544
304.57
304.595
304.618
304.643
304.669
304.694
304.719
304.741
304.765
304.79
304.815
304.84
304.866
304.891
304.916
304.94
304.96
304.983
305.006
305.03
305.054
305.078
305.101
305.125
305.149
305.172
305.195
305.218
305.24
305.263
305.285
305.307
305.329
305.351
305.372
305.395
305.421
305.444
305.466
305.487
305.506
305.525
305.547
305.571
305.593
305.612
305.63
305.65
305.673
305.692
305.713
305.736
305.757
305.774
305.795
305.815
305.831
305.851
305.867
305.885
305.905
305.925
305.943
305.957
305.974
305.988
306.004
306.022
306.039
306.057
306.072
306.084
306.098
306.113
306.128
306.141
306.15
306.162
306.174
306.185
306.196
306.203
306.212
306.22
306.228
306.235
306.241
306.246
306.249
306.252
306.253
306.253
306.251
306.248
306.243
306.237
306.229
306.22
306.208
306.195
306.179
306.161
306.14
306.116
306.089
306.057
306.018
305.978
305.938
305.892
305.84
305.781
305.717
305.609
305.51
305.386
305.225
302.928
303.042
303.13
303.206
303.271
303.327
303.373
303.417
303.459
303.498
303.535
303.571
303.607
303.642
303.677
303.711
303.743
303.774
303.804
303.835
303.865
303.895
303.925
303.955
303.985
304.014
304.042
304.071
304.099
304.127
304.154
304.182
304.208
304.235
304.262
304.288
304.314
304.339
304.365
304.39
304.415
304.44
304.466
304.493
304.519
304.544
304.569
304.594
304.619
304.645
304.669
304.693
304.717
304.742
304.767
304.792
304.818
304.843
304.868
304.892
304.914
304.937
304.96
304.984
305.008
305.032
305.056
305.08
305.104
305.127
305.15
305.173
305.196
305.219
305.241
305.264
305.286
305.308
305.33
305.353
305.378
305.401
305.423
305.445
305.465
305.485
305.506
305.53
305.551
305.571
305.59
305.611
305.633
305.653
305.674
305.696
305.717
305.736
305.756
305.776
305.794
305.812
305.83
305.848
305.868
305.888
305.905
305.921
305.937
305.952
305.969
305.986
306.003
306.02
306.036
306.049
306.063
306.078
306.092
306.105
306.116
306.127
306.139
306.151
306.161
306.169
306.178
306.186
306.194
306.201
306.207
306.212
306.216
306.218
306.219
306.219
306.218
306.215
306.211
306.204
306.197
306.187
306.175
306.162
306.146
306.128
306.107
306.083
306.055
306.023
305.985
305.945
305.903
305.856
305.803
305.742
305.673
305.568
305.464
305.334
305.157
302.846
302.945
303.032
303.107
303.174
303.232
303.284
303.331
303.376
303.418
303.458
303.496
303.533
303.57
303.605
303.64
303.673
303.706
303.738
303.769
303.8
303.831
303.862
303.892
303.922
303.952
303.981
304.01
304.038
304.067
304.095
304.122
304.15
304.177
304.204
304.23
304.257
304.283
304.309
304.335
304.36
304.386
304.412
304.438
304.464
304.49
304.515