/*--------------------------------*- C++ -*----------------------------------*\
| =========                 |                                                 |
| \\      /  F ield         | OpenFOAM: The Open Source CFD Toolbox           |
|  \\    /   O peration     | Version:  2106                                  |
|   \\  /    A nd           | Website:  www.openfoam.com                      |
|    \\/     M anipulation  |                                                 |
\*---------------------------------------------------------------------------*/
FoamFile
{
    version     2.0;
    format      ascii;
    arch        "LSB;label=32;scalar=64";
    class       volVectorField;
    location    "5.4";
    object      U;
}
// * * * * * * * * * * * * * * * * * * * * * * * * * * * * * * * * * * * * * //

dimensions      [0 1 -1 0 0 0 0];

internalField   nonuniform List<vector> 
12013
(
(0.100035 -9.67863e-06 0)
(0.100177 -1.78905e-05 0)
(0.100407 -2.55052e-05 0)
(0.100704 -3.25293e-05 0)
(0.101063 -3.91333e-05 0)
(0.101477 -4.54143e-05 0)
(0.101942 -5.14341e-05 0)
(0.102453 -5.72431e-05 0)
(0.103006 -6.28785e-05 0)
(0.103598 -6.837e-05 0)
(0.104226 -7.37409e-05 0)
(0.104888 -7.90095e-05 0)
(0.105581 -8.41918e-05 0)
(0.106303 -8.93002e-05 0)
(0.107051 -9.43436e-05 0)
(0.107826 -9.93303e-05 0)
(0.108623 -0.000104266 0)
(0.109443 -0.000109156 0)
(0.110282 -0.000114003 0)
(0.111141 -0.000118808 0)
(0.112018 -0.000123574 0)
(0.11291 -0.0001283 0)
(0.113818 -0.000132985 0)
(0.11474 -0.000137627 0)
(0.115674 -0.000142226 0)
(0.11662 -0.000146776 0)
(0.117576 -0.000151275 0)
(0.118541 -0.000155719 0)
(0.119515 -0.000160102 0)
(0.120495 -0.000164418 0)
(0.121482 -0.000168662 0)
(0.122474 -0.000172826 0)
(0.123469 -0.000176902 0)
(0.124468 -0.000180882 0)
(0.125469 -0.000184757 0)
(0.12647 -0.000188515 0)
(0.127471 -0.000192146 0)
(0.128472 -0.000195637 0)
(0.129469 -0.000198975 0)
(0.130464 -0.000202144 0)
(0.131454 -0.000205128 0)
(0.132439 -0.000207908 0)
(0.133417 -0.000210464 0)
(0.134387 -0.000212773 0)
(0.135348 -0.00021481 0)
(0.136299 -0.000216547 0)
(0.137239 -0.000217952 0)
(0.138166 -0.000218988 0)
(0.139078 -0.000219616 0)
(0.139975 -0.000219788 0)
(0.140855 -0.000219452 0)
(0.141715 -0.000218546 0)
(0.142555 -0.000217 0)
(0.143372 -0.000214732 0)
(0.144164 -0.000211645 0)
(0.144929 -0.000207628 0)
(0.145664 -0.000202545 0)
(0.146366 -0.000196238 0)
(0.147032 -0.000188516 0)
(0.147659 -0.000179145 0)
(0.148241 -0.000167843 0)
(0.148774 -0.000154258 0)
(0.149251 -0.000137956 0)
(0.149668 -0.000118385 0)
(0.150014 -9.48443e-05 0)
(0.15028 -6.64266e-05 0)
(0.150454 -3.19416e-05 0)
(0.150522 1.01981e-05 0)
(0.150463 6.21898e-05 0)
(0.150255 0.000127127 0)
(0.149864 0.000209423 0)
(0.149248 0.000315571 0)
(0.148349 0.000455412 0)
(0.147083 0.000644353 0)
(0.145329 0.000907335 0)
(0.142909 0.00128615 0)
(0.139542 0.00185335 0)
(0.134765 0.00274262 0)
(0.127809 0.0042415 0)
(0.117618 0.00719213 0)
(0.105925 0.0155378 0)
(0.100032 -2.95521e-05 0)
(0.100174 -5.48517e-05 0)
(0.100403 -7.82382e-05 0)
(0.100699 -9.97951e-05 0)
(0.101057 -0.000120063 0)
(0.10147 -0.000139338 0)
(0.101934 -0.000157811 0)
(0.102444 -0.000175634 0)
(0.102996 -0.000192923 0)
(0.103587 -0.00020977 0)
(0.104215 -0.000226245 0)
(0.104875 -0.000242407 0)
(0.105567 -0.000258303 0)
(0.106288 -0.00027397 0)
(0.107036 -0.000289438 0)
(0.107809 -0.00030473 0)
(0.108605 -0.000319866 0)
(0.109423 -0.00033486 0)
(0.110262 -0.00034972 0)
(0.111119 -0.000364454 0)
(0.111994 -0.000379064 0)
(0.112885 -0.000393551 0)
(0.113792 -0.000407912 0)
(0.114712 -0.000422142 0)
(0.115644 -0.000436235 0)
(0.116588 -0.000450181 0)
(0.117543 -0.000463969 0)
(0.118506 -0.000477585 0)
(0.119478 -0.000491014 0)
(0.120457 -0.000504239 0)
(0.121442 -0.000517239 0)
(0.122431 -0.000529994 0)
(0.123425 -0.00054248 0)
(0.124422 -0.000554669 0)
(0.12542 -0.000566534 0)
(0.126419 -0.000578042 0)
(0.127418 -0.000589159 0)
(0.128416 -0.000599847 0)
(0.129412 -0.000610062 0)
(0.130404 -0.00061976 0)
(0.131391 -0.00062889 0)
(0.132373 -0.000637395 0)
(0.133349 -0.000645212 0)
(0.134316 -0.000652273 0)
(0.135275 -0.0006585 0)
(0.136223 -0.000663807 0)
(0.13716 -0.000668095 0)
(0.138084 -0.000671256 0)
(0.138994 -0.000673164 0)
(0.139888 -0.000673678 0)
(0.140765 -0.000672635 0)
(0.141623 -0.00066985 0)
(0.14246 -0.000665107 0)
(0.143274 -0.000658156 0)
(0.144064 -0.000648704 0)
(0.144826 -0.000636408 0)
(0.145559 -0.000620861 0)
(0.146259 -0.000601579 0)
(0.146923 -0.000577981 0)
(0.147548 -0.000549361 0)
(0.148129 -0.000514861 0)
(0.148662 -0.000473424 0)
(0.14914 -0.00042373 0)
(0.149559 -0.000364126 0)
(0.149908 -0.000292502 0)
(0.15018 -0.000206141 0)
(0.150363 -0.000101495 0)
(0.150443 2.61485e-05 0)
(0.150403 0.000183215 0)
(0.150221 0.000378661 0)
(0.14987 0.000625151 0)
(0.149312 0.000941048 0)
(0.1485 0.00135366 0)
(0.14737 0.0019047 0)
(0.145834 0.00265954 0)
(0.143776 0.00372299 0)
(0.141035 0.00526563 0)
(0.137392 0.00756706 0)
(0.132583 0.0110884 0)
(0.126624 0.0165014 0)
(0.121731 0.0241313 0)
(0.100029 -5.02303e-05 0)
(0.100169 -9.40851e-05 0)
(0.100396 -0.000134363 0)
(0.10069 -0.000171479 0)
(0.101046 -0.000206368 0)
(0.101458 -0.00023954 0)
(0.10192 -0.000271327 0)
(0.102428 -0.000301992 0)
(0.102978 -0.000331737 0)
(0.103567 -0.000360717 0)
(0.104193 -0.000389056 0)
(0.104851 -0.000416854 0)
(0.105541 -0.000444191 0)
(0.106259 -0.000471132 0)
(0.107005 -0.000497729 0)
(0.107775 -0.000524024 0)
(0.108569 -0.000550047 0)
(0.109385 -0.000575822 0)
(0.110221 -0.000601367 0)
(0.111075 -0.000626692 0)
(0.111947 -0.000651803 0)
(0.112836 -0.000676699 0)
(0.113739 -0.000701377 0)
(0.114656 -0.000725828 0)
(0.115585 -0.00075004 0)
(0.116526 -0.000773997 0)
(0.117477 -0.00079768 0)
(0.118437 -0.000821065 0)
(0.119405 -0.000844126 0)
(0.120379 -0.000866833 0)
(0.12136 -0.000889152 0)
(0.122346 -0.000911046 0)
(0.123336 -0.000932475 0)
(0.124328 -0.000953391 0)
(0.125322 -0.000973747 0)
(0.126317 -0.000993486 0)
(0.127311 -0.00101255 0)
(0.128304 -0.00103087 0)
(0.129295 -0.00104838 0)
(0.130282 -0.001065 0)
(0.131264 -0.00108063 0)
(0.132241 -0.00109519 0)
(0.133211 -0.00110857 0)
(0.134174 -0.00112064 0)
(0.135127 -0.00113128 0)
(0.13607 -0.00114034 0)
(0.137001 -0.00114764 0)
(0.137919 -0.00115301 0)
(0.138823 -0.00115623 0)
(0.139711 -0.00115706 0)
(0.140582 -0.00115522 0)
(0.141434 -0.00115039 0)
(0.142266 -0.00114221 0)
(0.143075 -0.00113026 0)
(0.143859 -0.00111404 0)
(0.144616 -0.00109296 0)
(0.145344 -0.00106635 0)
(0.146039 -0.00103338 0)
(0.1467 -0.000993079 0)
(0.147321 -0.000944269 0)
(0.1479 -0.000885514 0)
(0.148432 -0.000815055 0)
(0.148911 -0.000730712 0)
(0.149332 -0.000629758 0)
(0.149688 -0.000508743 0)
(0.149969 -0.000363252 0)
(0.150167 -0.000187567 0)
(0.150269 2.58161e-05 0)
(0.15026 0.000286926 0)
(0.150124 0.000609495 0)
(0.149838 0.00101254 0)
(0.149377 0.00152283 0)
(0.148708 0.00217878 0)
(0.147794 0.00303634 0)
(0.146592 0.00417814 0)
(0.145056 0.00572676 0)
(0.143155 0.007862 0)
(0.140892 0.0108378 0)
(0.138376 0.0149826 0)
(0.136021 0.0205691 0)
(0.135049 0.027054 0)
(0.100027 -7.15332e-05 0)
(0.100164 -0.00013548 0)
(0.100388 -0.000193814 0)
(0.100679 -0.000247598 0)
(0.101032 -0.000298133 0)
(0.101441 -0.000346165 0)
(0.1019 -0.000392181 0)
(0.102405 -0.000436565 0)
(0.102952 -0.00047961 0)
(0.103538 -0.000521542 0)
(0.10416 -0.000562541 0)
(0.104816 -0.000602753 0)
(0.105502 -0.000642293 0)
(0.106217 -0.000681256 0)
(0.106959 -0.000719717 0)
(0.107725 -0.000757736 0)
(0.108515 -0.000795357 0)
(0.109327 -0.000832616 0)
(0.110159 -0.000869537 0)
(0.111009 -0.000906135 0)
(0.111877 -0.000942419 0)
(0.11276 -0.000978389 0)
(0.113659 -0.00101404 0)
(0.114571 -0.00104935 0)
(0.115495 -0.00108432 0)
(0.116431 -0.00111891 0)
(0.117376 -0.0011531 0)
(0.118331 -0.00118685 0)
(0.119293 -0.00122013 0)
(0.120262 -0.0012529 0)
(0.121237 -0.00128509 0)
(0.122216 -0.00131667 0)
(0.123199 -0.00134756 0)
(0.124185 -0.00137771 0)
(0.125173 -0.00140704 0)
(0.12616 -0.00143548 0)
(0.127148 -0.00146293 0)
(0.128134 -0.0014893 0)
(0.129117 -0.00151449 0)
(0.130097 -0.00153839 0)
(0.131072 -0.00156086 0)
(0.132041 -0.00158177 0)
(0.133003 -0.00160097 0)
(0.133957 -0.00161828 0)
(0.134902 -0.00163352 0)
(0.135836 -0.00164646 0)
(0.136759 -0.00165688 0)
(0.137669 -0.0016645 0)
(0.138565 -0.00166901 0)
(0.139444 -0.00167009 0)
(0.140307 -0.00166732 0)
(0.14115 -0.00166026 0)
(0.141973 -0.00164839 0)
(0.142774 -0.00163111 0)
(0.14355 -0.00160772 0)
(0.1443 -0.0015774 0)
(0.145021 -0.00153918 0)
(0.14571 -0.00149192 0)
(0.146365 -0.00143426 0)
(0.146982 -0.00136456 0)
(0.147558 -0.00128085 0)
(0.148089 -0.00118069 0)
(0.14857 -0.00106112 0)
(0.148995 -0.000918452 0)
(0.14936 -0.00074805 0)
(0.149656 -0.000544062 0)
(0.149876 -0.000298998 0)
(0.15001 -3.18922e-06 0)
(0.150048 0.000355927 0)
(0.149977 0.000795141 0)
(0.149784 0.001337 0)
(0.149455 0.00201206 0)
(0.148974 0.00286198 0)
(0.148331 0.00394391 0)
(0.147521 0.00533587 0)
(0.146555 0.00714254 0)
(0.145482 0.00949805 0)
(0.14441 0.0125561 0)
(0.143553 0.0164445 0)
(0.143285 0.021113 0)
(0.144139 0.0259064 0)
(0.100024 -9.34665e-05 0)
(0.100159 -0.000178956 0)
(0.100378 -0.000256551 0)
(0.100666 -0.000328169 0)
(0.101015 -0.000395437 0)
(0.10142 -0.000459346 0)
(0.101875 -0.000520558 0)
(0.102376 -0.000579585 0)
(0.102919 -0.000636819 0)
(0.1035 -0.000692563 0)
(0.104118 -0.000747056 0)
(0.104769 -0.000800493 0)
(0.10545 -0.000853029 0)
(0.10616 -0.00090479 0)
(0.106897 -0.000955874 0)
(0.107659 -0.00100636 0)
(0.108443 -0.00105632 0)
(0.10925 -0.00110578 0)
(0.110076 -0.00115479 0)
(0.11092 -0.00120336 0)
(0.111782 -0.0012515 0)
(0.112659 -0.00129922 0)
(0.113551 -0.0013465 0)
(0.114456 -0.00139333 0)
(0.115374 -0.00143969 0)
(0.116302 -0.00148554 0)
(0.11724 -0.00153085 0)
(0.118187 -0.00157557 0)
(0.119142 -0.00161965 0)
(0.120103 -0.00166303 0)
(0.12107 -0.00170565 0)
(0.122041 -0.00174743 0)
(0.123016 -0.00178831 0)
(0.123993 -0.00182818 0)
(0.124971 -0.00186695 0)
(0.12595 -0.00190452 0)
(0.126928 -0.00194078 0)
(0.127904 -0.00197559 0)
(0.128877 -0.00200883 0)
(0.129847 -0.00204033 0)
(0.130812 -0.00206993 0)
(0.13177 -0.00209746 0)
(0.132722 -0.0021227 0)
(0.133665 -0.00214543 0)
(0.134599 -0.0021654 0)
(0.135523 -0.00218233 0)
(0.136435 -0.00219591 0)
(0.137333 -0.00220578 0)
(0.138218 -0.00221156 0)
(0.139086 -0.00221278 0)
(0.139938 -0.00220894 0)
(0.14077 -0.00219945 0)
(0.141583 -0.00218363 0)
(0.142373 -0.00216072 0)
(0.143139 -0.00212982 0)
(0.143879 -0.00208986 0)
(0.144591 -0.00203963 0)
(0.145273 -0.00197768 0)
(0.145921 -0.00190227 0)
(0.146533 -0.00181136 0)
(0.147107 -0.00170249 0)
(0.147637 -0.00157266 0)
(0.148121 -0.00141823 0)
(0.148554 -0.00123474 0)
(0.148932 -0.00101665 0)
(0.149249 -0.000757082 0)
(0.149499 -0.000447363 0)
(0.149677 -7.65635e-05 0)
(0.149775 0.000369098 0)
(0.149787 0.000907369 0)
(0.149709 0.00156121 0)
(0.149536 0.00236027 0)
(0.149269 0.00334266 0)
(0.148916 0.00455686 0)
(0.148499 0.00606319 0)
(0.14806 0.00793324 0)
(0.147676 0.0102438 0)
(0.147473 0.0130581 0)
(0.147638 0.0163798 0)
(0.148412 0.0200566 0)
(0.150004 0.0236148 0)
(0.100021 -0.000116038 0)
(0.100153 -0.000224437 0)
(0.100368 -0.000322522 0)
(0.100651 -0.000413179 0)
(0.100995 -0.000498316 0)
(0.101394 -0.000579175 0)
(0.101844 -0.000656599 0)
(0.10234 -0.000731239 0)
(0.102878 -0.000803594 0)
(0.103454 -0.000874046 0)
(0.104066 -0.000942903 0)
(0.104711 -0.00101041 0)
(0.105386 -0.00107677 0)
(0.10609 -0.00114213 0)
(0.106821 -0.00120662 0)
(0.107576 -0.00127035 0)
(0.108353 -0.00133339 0)
(0.109152 -0.00139579 0)
(0.109971 -0.00145761 0)
(0.110808 -0.00151886 0)
(0.111662 -0.00157956 0)
(0.112532 -0.00163971 0)
(0.113415 -0.0016993 0)
(0.114312 -0.0017583 0)
(0.115221 -0.00181669 0)
(0.11614 -0.00187443 0)
(0.117069 -0.00193146 0)
(0.118007 -0.00198774 0)
(0.118952 -0.00204319 0)
(0.119903 -0.00209775 0)
(0.120859 -0.00215133 0)
(0.12182 -0.00220384 0)
(0.122784 -0.00225517 0)
(0.12375 -0.00230523 0)
(0.124717 -0.00235389 0)
(0.125684 -0.00240101 0)
(0.12665 -0.00244646 0)
(0.127614 -0.00249007 0)
(0.128575 -0.00253167 0)
(0.129532 -0.00257107 0)
(0.130484 -0.00260807 0)
(0.13143 -0.00264243 0)
(0.132368 -0.0026739 0)
(0.133298 -0.00270219 0)
(0.134219 -0.002727 0)
(0.135129 -0.00274798 0)
(0.136027 -0.00276474 0)
(0.136912 -0.00277685 0)
(0.137783 -0.00278381 0)
(0.138638 -0.00278508 0)
(0.139476 -0.00278001 0)
(0.140295 -0.00276791 0)
(0.141095 -0.00274794 0)
(0.141872 -0.00271917 0)
(0.142627 -0.00268051 0)
(0.143356 -0.0026307 0)
(0.144058 -0.00256827 0)
(0.144731 -0.00249149 0)
(0.145372 -0.00239835 0)
(0.14598 -0.00228644 0)
(0.146551 -0.0021529 0)
(0.147082 -0.00199432 0)
(0.147572 -0.00180657 0)
(0.148016 -0.00158468 0)
(0.148412 -0.00132258 0)
(0.148755 -0.00101287 0)
(0.149044 -0.000646434 0)
(0.149274 -0.00021211 0)
(0.149444 0.00030374 0)
(0.149552 0.000917817 0)
(0.149601 0.00165077 0)
(0.149594 0.00252778 0)
(0.149544 0.00357906 0)
(0.149469 0.00483972 0)
(0.149404 0.00634866 0)
(0.1494 0.00814499 0)
(0.149531 0.0102599 0)
(0.149901 0.0127007 0)
(0.150638 0.0154215 0)
(0.151873 0.0182784 0)
(0.153677 0.0209788 0)
(0.100019 -0.000139257 0)
(0.100147 -0.000271862 0)
(0.100357 -0.000391679 0)
(0.100634 -0.000502594 0)
(0.100972 -0.000606777 0)
(0.101366 -0.000705699 0)
(0.10181 -0.000800396 0)
(0.102299 -0.000891663 0)
(0.10283 -0.000980109 0)
(0.103399 -0.00106621 0)
(0.104004 -0.00115033 0)
(0.104642 -0.00123279 0)
(0.10531 -0.00131381 0)
(0.106007 -0.0013936 0)
(0.106729 -0.00147231 0)
(0.107476 -0.00155007 0)
(0.108245 -0.00162697 0)
(0.109036 -0.00170307 0)
(0.109846 -0.00177844 0)
(0.110673 -0.00185309 0)
(0.111518 -0.00192705 0)
(0.112378 -0.00200032 0)
(0.113251 -0.00207288 0)
(0.114138 -0.00214471 0)
(0.115036 -0.00221577 0)
(0.115944 -0.00228601 0)
(0.116862 -0.00235537 0)
(0.117788 -0.00242379 0)
(0.118721 -0.00249117 0)
(0.11966 -0.00255744 0)
(0.120604 -0.0026225 0)
(0.121552 -0.00268622 0)
(0.122503 -0.00274849 0)
(0.123455 -0.00280918 0)
(0.124409 -0.00286813 0)
(0.125362 -0.00292519 0)
(0.126314 -0.00298018 0)
(0.127264 -0.00303291 0)
(0.12821 -0.00308317 0)
(0.129152 -0.00313073 0)
(0.130089 -0.00317533 0)
(0.131019 -0.00321671 0)
(0.131942 -0.00325455 0)
(0.132856 -0.00328852 0)
(0.133761 -0.00331824 0)
(0.134655 -0.00334331 0)
(0.135537 -0.00336325 0)
(0.136406 -0.00337755 0)
(0.137261 -0.00338563 0)
(0.1381 -0.00338684 0)
(0.138923 -0.00338044 0)
(0.139727 -0.00336558 0)
(0.140512 -0.00334133 0)
(0.141275 -0.00330658 0)
(0.142017 -0.00326009 0)
(0.142734 -0.00320042 0)
(0.143425 -0.0031259 0)
(0.144088 -0.00303458 0)
(0.144723 -0.00292422 0)
(0.145326 -0.00279215 0)
(0.145896 -0.00263527 0)
(0.146431 -0.0024499 0)
(0.146928 -0.00223168 0)
(0.147387 -0.00197544 0)
(0.147804 -0.001675 0)
(0.14818 -0.00132299 0)
(0.148513 -0.000910644 0)
(0.148802 -0.000427485 0)
(0.14905 0.000138866 0)
(0.14926 0.000802333 0)
(0.149437 0.00157956 0)
(0.149593 0.00248944 0)
(0.149744 0.00355269 0)
(0.149914 0.00479078 0)
(0.150138 0.00622374 0)
(0.150461 0.00786626 0)
(0.150945 0.00972119 0)
(0.15166 0.0117694 0)
(0.152683 0.0139556 0)
(0.154077 0.0161719 0)
(0.155856 0.0182487 0)
(0.100016 -0.000163144 0)
(0.100141 -0.000321187 0)
(0.100346 -0.000463975 0)
(0.100617 -0.000596373 0)
(0.100948 -0.000720801 0)
(0.101335 -0.000838935 0)
(0.101771 -0.000952001 0)
(0.102253 -0.00106094 0)
(0.102776 -0.00116649 0)
(0.103338 -0.0012692 0)
(0.103934 -0.00136953 0)
(0.104564 -0.00146783 0)
(0.105223 -0.00156441 0)
(0.10591 -0.00165948 0)
(0.106623 -0.00175324 0)
(0.10736 -0.00184583 0)
(0.10812 -0.00193737 0)
(0.1089 -0.00202793 0)
(0.109699 -0.00211759 0)
(0.110516 -0.00220638 0)
(0.111349 -0.00229431 0)
(0.112198 -0.00238139 0)
(0.113059 -0.00246759 0)
(0.113934 -0.0025529 0)
(0.114819 -0.00263725 0)
(0.115715 -0.0027206 0)
(0.116619 -0.00280288 0)
(0.117532 -0.002884 0)
(0.118451 -0.00296386 0)
(0.119376 -0.00304236 0)
(0.120305 -0.00311938 0)
(0.121238 -0.00319478 0)
(0.122173 -0.00326842 0)
(0.12311 -0.00334015 0)
(0.124048 -0.00340978 0)
(0.124985 -0.00347712 0)
(0.12592 -0.00354197 0)
(0.126853 -0.00360411 0)
(0.127783 -0.00366327 0)
(0.128707 -0.0037192 0)
(0.129626 -0.0037716 0)
(0.130539 -0.00382014 0)
(0.131444 -0.00386447 0)
(0.13234 -0.00390419 0)
(0.133227 -0.00393887 0)
(0.134103 -0.00396803 0)
(0.134966 -0.00399113 0)
(0.135817 -0.00400759 0)
(0.136654 -0.00401673 0)
(0.137476 -0.00401782 0)
(0.138281 -0.00401002 0)
(0.139068 -0.00399238 0)
(0.139837 -0.00396383 0)
(0.140585 -0.00392316 0)
(0.141312 -0.003869 0)
(0.142016 -0.00379975 0)
(0.142696 -0.00371361 0)
(0.14335 -0.0036085 0)
(0.143978 -0.00348202 0)
(0.144577 -0.00333139 0)
(0.145147 -0.00315339 0)
(0.145687 -0.0029443 0)
(0.146194 -0.00269977 0)
(0.14667 -0.00241477 0)
(0.147113 -0.00208343 0)
(0.147524 -0.00169899 0)
(0.147904 -0.0012536 0)
(0.148256 -0.000738332 0)
(0.148583 -0.000143024 0)
(0.148892 0.000543296 0)
(0.149192 0.00133207 0)
(0.149495 0.0022356 0)
(0.149819 0.00326582 0)
(0.150187 0.00443292 0)
(0.15063 0.00574329 0)
(0.151183 0.00719657 0)
(0.151888 0.00878156 0)
(0.15279 0.0104712 0)
(0.153929 0.0122172 0)
(0.155332 0.013946 0)
(0.156992 0.0155619 0)
(0.100013 -0.000187729 0)
(0.100136 -0.000372379 0)
(0.100334 -0.000539372 0)
(0.100598 -0.00069447 0)
(0.100923 -0.000840352 0)
(0.101301 -0.000978868 0)
(0.10173 -0.00111143 0)
(0.102203 -0.00123912 0)
(0.102717 -0.0013628 0)
(0.103269 -0.00148312 0)
(0.103856 -0.00160061 0)
(0.104476 -0.0017157 0)
(0.105125 -0.00182871 0)
(0.105801 -0.00193993 0)
(0.106504 -0.00204958 0)
(0.10723 -0.00215783 0)
(0.107977 -0.0022648 0)
(0.108746 -0.0023706 0)
(0.109533 -0.00247531 0)
(0.110337 -0.00257895 0)
(0.111157 -0.00268156 0)
(0.111992 -0.00278313 0)
(0.11284 -0.00288364 0)
(0.1137 -0.00298306 0)
(0.114571 -0.00308133 0)
(0.115452 -0.00317838 0)
(0.116341 -0.00327414 0)
(0.117238 -0.0033685 0)
(0.118141 -0.00346136 0)
(0.119049 -0.00355258 0)
(0.119962 -0.00364202 0)
(0.120878 -0.00372954 0)
(0.121796 -0.00381496 0)
(0.122715 -0.00389809 0)
(0.123634 -0.00397874 0)
(0.124553 -0.00405668 0)
(0.125469 -0.00413167 0)
(0.126383 -0.00420344 0)
(0.127293 -0.00427173 0)
(0.128198 -0.00433621 0)
(0.129098 -0.00439654 0)
(0.12999 -0.00445235 0)
(0.130875 -0.00450324 0)
(0.131751 -0.00454877 0)
(0.132617 -0.00458843 0)
(0.133473 -0.00462169 0)
(0.134316 -0.00464795 0)
(0.135147 -0.00466655 0)
(0.135964 -0.00467674 0)
(0.136766 -0.00467771 0)
(0.137552 -0.00466853 0)
(0.138321 -0.00464818 0)
(0.139072 -0.00461551 0)
(0.139804 -0.00456919 0)
(0.140516 -0.00450778 0)
(0.141207 -0.0044296 0)
(0.141875 -0.00433277 0)
(0.14252 -0.00421514 0)
(0.143141 -0.0040743 0)
(0.143738 -0.00390746 0)
(0.144309 -0.00371148 0)
(0.144855 -0.00348277 0)
(0.145375 -0.00321729 0)
(0.145869 -0.00291041 0)
(0.146339 -0.00255698 0)
(0.146787 -0.0021512 0)
(0.147215 -0.00168668 0)
(0.147627 -0.00115645 0)
(0.148029 -0.000553023 0)
(0.148429 0.000131525 0)
(0.148836 0.000903931 0)
(0.149263 0.00177048 0)
(0.149726 0.00273618 0)
(0.150244 0.00380333 0)
(0.150841 0.00497 0)
(0.151542 0.00622832 0)
(0.152372 0.00756238 0)
(0.153358 0.00894635 0)
(0.154519 0.0103432 0)
(0.155862 0.0117052 0)
(0.157377 0.0129783 0)
(0.10001 -0.000213047 0)
(0.10013 -0.000425418 0)
(0.100323 -0.000617834 0)
(0.10058 -0.000796838 0)
(0.100896 -0.000965378 0)
(0.101266 -0.00112545 0)
(0.101685 -0.00127864 0)
(0.102149 -0.00142618 0)
(0.102653 -0.00156905 0)
(0.103194 -0.00170799 0)
(0.103771 -0.00184363 0)
(0.104379 -0.00197643 0)
(0.105016 -0.0021068 0)
(0.105681 -0.00223506 0)
(0.106371 -0.00236145 0)
(0.107084 -0.00248617 0)
(0.107819 -0.00260938 0)
(0.108573 -0.00273119 0)
(0.109346 -0.00285168 0)
(0.110136 -0.00297091 0)
(0.110941 -0.00308889 0)
(0.111761 -0.00320562 0)
(0.112593 -0.00332109 0)
(0.113438 -0.00343524 0)
(0.114292 -0.00354803 0)
(0.115156 -0.00365936 0)
(0.116028 -0.00376914 0)
(0.116907 -0.00387726 0)
(0.117792 -0.00398359 0)
(0.118682 -0.00408798 0)
(0.119576 -0.00419028 0)
(0.120472 -0.00429031 0)
(0.12137 -0.00438787 0)
(0.12227 -0.00448274 0)
(0.123169 -0.00457471 0)
(0.124066 -0.00466351 0)
(0.124962 -0.00474887 0)
(0.125854 -0.0048305 0)
(0.126743 -0.00490807 0)
(0.127626 -0.00498123 0)
(0.128504 -0.0050496 0)
(0.129374 -0.00511277 0)
(0.130237 -0.00517029 0)
(0.13109 -0.00522165 0)
(0.131934 -0.00526631 0)
(0.132767 -0.00530369 0)
(0.133589 -0.00533312 0)
(0.134398 -0.00535387 0)
(0.135193 -0.00536516 0)
(0.135975 -0.0053661 0)
(0.13674 -0.00535571 0)
(0.13749 -0.0053329 0)
(0.138223 -0.00529646 0)
(0.138937 -0.00524504 0)
(0.139633 -0.00517713 0)
(0.14031 -0.00509105 0)
(0.140967 -0.00498491 0)
(0.141603 -0.00485661 0)
(0.142218 -0.0047038 0)
(0.142812 -0.00452385 0)
(0.143385 -0.00431384 0)
(0.143938 -0.00407054 0)
(0.14447 -0.00379035 0)
(0.144984 -0.00346937 0)
(0.145481 -0.00310336 0)
(0.145964 -0.00268778 0)
(0.146437 -0.00221787 0)
(0.146904 -0.00168877 0)
(0.147372 -0.00109569 0)
(0.147849 -0.000434017 0)
(0.148344 0.000300448 0)
(0.148869 0.00110877 0)
(0.149435 0.0019911 0)
(0.150058 0.00294503 0)
(0.150754 0.00396455 0)
(0.151539 0.00503921 0)
(0.152428 0.00615336 0)
(0.153435 0.00728577 0)
(0.154567 0.00840994 0)
(0.155823 0.0094955 0)
(0.157193 0.0105116 0)
(0.100006 -0.000239126 0)
(0.100124 -0.000480285 0)
(0.100311 -0.000699322 0)
(0.100561 -0.000903418 0)
(0.100868 -0.00109581 0)
(0.101229 -0.00127862 0)
(0.101638 -0.00145357 0)
(0.102091 -0.00162206 0)
(0.102584 -0.00178518 0)
(0.103114 -0.00194377 0)
(0.103678 -0.00209853 0)
(0.104274 -0.00225001 0)
(0.104898 -0.00239866 0)
(0.105549 -0.00254483 0)
(0.106225 -0.00268881 0)
(0.106924 -0.00283084 0)
(0.107644 -0.00297108 0)
(0.108383 -0.00310967 0)
(0.10914 -0.00324669 0)
(0.109914 -0.0033822 0)
(0.110703 -0.00351624 0)
(0.111505 -0.00364879 0)
(0.11232 -0.00377984 0)
(0.113146 -0.00390933 0)
(0.113982 -0.00403719 0)
(0.114827 -0.00416334 0)
(0.11568 -0.00428765 0)
(0.116539 -0.00441001 0)
(0.117404 -0.00453027 0)
(0.118273 -0.00464826 0)
(0.119146 -0.0047638 0)
(0.120021 -0.00487668 0)
(0.120898 -0.0049867 0)
(0.121775 -0.00509361 0)
(0.122651 -0.00519714 0)
(0.123526 -0.00529702 0)
(0.124399 -0.00539295 0)
(0.125268 -0.00548458 0)
(0.126132 -0.00557157 0)
(0.126992 -0.00565352 0)
(0.127845 -0.00573001 0)
(0.128692 -0.00580059 0)
(0.12953 -0.00586477 0)
(0.130359 -0.005922 0)
(0.131179 -0.00597169 0)
(0.131988 -0.00601322 0)
(0.132786 -0.00604586 0)
(0.133572 -0.00606887 0)
(0.134344 -0.00608139 0)
(0.135103 -0.00608252 0)
(0.135848 -0.00607122 0)
(0.136577 -0.00604639 0)
(0.13729 -0.0060068 0)
(0.137987 -0.0059511 0)
(0.138667 -0.00587781 0)
(0.139329 -0.00578527 0)
(0.139974 -0.00567169 0)
(0.140601 -0.00553508 0)
(0.14121 -0.0053733 0)
(0.141802 -0.00518397 0)
(0.142377 -0.00496453 0)
(0.142936 -0.00471223 0)
(0.143481 -0.00442415 0)
(0.144013 -0.00409718 0)
(0.144535 -0.00372814 0)
(0.14505 -0.00331382 0)
(0.145562 -0.00285109 0)
(0.146076 -0.00233706 0)
(0.146598 -0.00176926 0)
(0.147135 -0.00114583 0)
(0.147696 -0.000465657 0)
(0.14829 0.000271591 0)
(0.148926 0.00106217 0)
(0.149615 0.00190093 0)
(0.150366 0.00278056 0)
(0.15119 0.00369087 0)
(0.152094 0.00461857 0)
(0.153084 0.0055475 0)
(0.154161 0.00645936 0)
(0.155324 0.00733497 0)
(0.156561 0.00815648 0)
(0.100003 -0.00026599 0)
(0.100118 -0.000536958 0)
(0.1003 -0.000783785 0)
(0.100541 -0.00101414 0)
(0.10084 -0.00123155 0)
(0.101191 -0.00143825 0)
(0.101589 -0.0016361 0)
(0.10203 -0.00182664 0)
(0.102511 -0.00201107 0)
(0.103028 -0.00219033 0)
(0.103579 -0.00236521 0)
(0.10416 -0.00253631 0)
(0.10477 -0.00270414 0)
(0.105407 -0.00286911 0)
(0.106067 -0.00303154 0)
(0.10675 -0.00319168 0)
(0.107453 -0.00334973 0)
(0.108176 -0.00350584 0)
(0.108915 -0.00366011 0)
(0.109671 -0.00381261 0)
(0.110442 -0.00396336 0)
(0.111225 -0.00411236 0)
(0.112021 -0.00425959 0)
(0.112827 -0.00440498 0)
(0.113642 -0.00454846 0)
(0.114467 -0.00468992 0)
(0.115298 -0.00482924 0)
(0.116135 -0.00496628 0)
(0.116978 -0.00510086 0)
(0.117825 -0.00523282 0)
(0.118674 -0.00536193 0)
(0.119526 -0.00548799 0)
(0.120378 -0.00561073 0)
(0.121231 -0.00572991 0)
(0.122083 -0.00584522 0)
(0.122933 -0.00595636 0)
(0.12378 -0.00606299 0)
(0.124624 -0.00616474 0)
(0.125463 -0.00626123 0)
(0.126296 -0.00635204 0)
(0.127124 -0.00643671 0)
(0.127944 -0.00651474 0)
(0.128756 -0.00658561 0)
(0.12956 -0.00664874 0)
(0.130354 -0.00670352 0)
(0.131137 -0.00674926 0)
(0.13191 -0.00678524 0)
(0.132671 -0.00681067 0)
(0.133419 -0.00682468 0)
(0.134155 -0.00682634 0)
(0.134876 -0.00681463 0)
(0.135584 -0.00678844 0)
(0.136277 -0.00674658 0)
(0.136956 -0.00668774 0)
(0.137619 -0.0066105 0)
(0.138267 -0.00651334 0)
(0.138899 -0.00639461 0)
(0.139517 -0.00625253 0)
(0.14012 -0.00608523 0)
(0.140709 -0.0058907 0)
(0.141285 -0.00566683 0)
(0.14185 -0.00541145 0)
(0.142405 -0.00512235 0)
(0.142952 -0.0047973 0)
(0.143495 -0.00443418 0)
(0.144036 -0.00403101 0)
(0.144579 -0.00358611 0)
(0.145129 -0.0030982 0)
(0.145692 -0.00256661 0)
(0.146272 -0.00199144 0)
(0.146877 -0.00137365 0)
(0.147515 -0.000715173 0)
(0.148191 -1.86093e-05 0)
(0.148913 0.000710434 0)
(0.149687 0.00146323 0)
(0.150517 0.00223102 0)
(0.151407 0.00300337 0)
(0.152358 0.00376867 0)
(0.153371 0.00451458 0)
(0.15444 0.00522892 0)
(0.155558 0.00590124 0)
(0.0999993 -0.000293649 0)
(0.100112 -0.000595406 0)
(0.100288 -0.000871154 0)
(0.100522 -0.0011289 0)
(0.100811 -0.00137247 0)
(0.101151 -0.0016042 0)
(0.101538 -0.00182606 0)
(0.101966 -0.00203973 0)
(0.102434 -0.00224651 0)
(0.102937 -0.00244745 0)
(0.103474 -0.00264341 0)
(0.10404 -0.00283507 0)
(0.104634 -0.00302299 0)
(0.105254 -0.00320762 0)
(0.105897 -0.00338931 0)
(0.106562 -0.00356836 0)
(0.107248 -0.00374499 0)
(0.107951 -0.00391935 0)
(0.108672 -0.00409157 0)
(0.109408 -0.0042617 0)
(0.110158 -0.00442979 0)
(0.110921 -0.00459584 0)
(0.111695 -0.0047598 0)
(0.112479 -0.00492162 0)
(0.113273 -0.0050812 0)
(0.114074 -0.00523843 0)
(0.114882 -0.00539318 0)
(0.115695 -0.00554528 0)
(0.116514 -0.00569456 0)
(0.117335 -0.00584079 0)
(0.11816 -0.00598377 0)
(0.118986 -0.00612324 0)
(0.119813 -0.00625893 0)
(0.120639 -0.00639056 0)
(0.121464 -0.0065178 0)
(0.122287 -0.00664032 0)
(0.123107 -0.00675775 0)
(0.123923 -0.0068697 0)
(0.124734 -0.00697575 0)
(0.12554 -0.00707546 0)
(0.12634 -0.00716832 0)
(0.127132 -0.00725384 0)
(0.127916 -0.00733144 0)
(0.128692 -0.00740053 0)
(0.129459 -0.00746047 0)
(0.130215 -0.00751057 0)
(0.130961 -0.00755008 0)
(0.131696 -0.0075782 0)
(0.132419 -0.00759407 0)
(0.13313 -0.00759679 0)
(0.133828 -0.00758534 0)
(0.134514 -0.00755869 0)
(0.135186 -0.00751568 0)
(0.135845 -0.00745512 0)
(0.136491 -0.00737572 0)
(0.137124 -0.00727611 0)
(0.137744 -0.00715486 0)
(0.138351 -0.00701048 0)
(0.138947 -0.00684141 0)
(0.139532 -0.00664607 0)
(0.140108 -0.00642287 0)
(0.140676 -0.00617024 0)
(0.141239 -0.00588666 0)
(0.141797 -0.00557076 0)
(0.142354 -0.00522134 0)
(0.142914 -0.0048375 0)
(0.143479 -0.00441869 0)
(0.144054 -0.00396485 0)
(0.144643 -0.00347655 0)
(0.14525 -0.00295504 0)
(0.14588 -0.00240242 0)
(0.146539 -0.00182169 0)
(0.14723 -0.00121666 0)
(0.147959 -0.000591819 0)
(0.14873 4.79977e-05 0)
(0.149544 0.000695047 0)
(0.150401 0.00133982 0)
(0.151303 0.00197397 0)
(0.152246 0.00258923 0)
(0.153226 0.00317797 0)
(0.154238 0.0037341 0)
(0.0999953 -0.0003221 0)
(0.100106 -0.00065558 0)
(0.100277 -0.000961331 0)
(0.100502 -0.00124756 0)
(0.100781 -0.00151839 0)
(0.10111 -0.00177624 0)
(0.101484 -0.0020232 0)
(0.1019 -0.00226104 0)
(0.102353 -0.00249119 0)
(0.102841 -0.0027148 0)
(0.103362 -0.00293279 0)
(0.103912 -0.00314591 0)
(0.104488 -0.00335478 0)
(0.10509 -0.0035599 0)
(0.105715 -0.00376167 0)
(0.106361 -0.00396039 0)
(0.107027 -0.00415631 0)
(0.10771 -0.00434961 0)
(0.10841 -0.00454042 0)
(0.109124 -0.00472882 0)
(0.109852 -0.00491483 0)
(0.110592 -0.00509846 0)
(0.111343 -0.00527967 0)
(0.112103 -0.00545838 0)
(0.112872 -0.00563451 0)
(0.113649 -0.00580792 0)
(0.114431 -0.00597845 0)
(0.115219 -0.00614595 0)
(0.116011 -0.00631019 0)
(0.116806 -0.00647097 0)
(0.117603 -0.00662803 0)
(0.118401 -0.0067811 0)
(0.1192 -0.0069299 0)
(0.119998 -0.0070741 0)
(0.120794 -0.00721337 0)
(0.121588 -0.00734734 0)
(0.122379 -0.00747563 0)
(0.123166 -0.00759781 0)
(0.123948 -0.00771345 0)
(0.124724 -0.00782206 0)
(0.125494 -0.00792315 0)
(0.126256 -0.00801617 0)
(0.127011 -0.00810056 0)
(0.127758 -0.00817569 0)
(0.128495 -0.00824093 0)
(0.129223 -0.00829557 0)
(0.129941 -0.00833889 0)
(0.130649 -0.00837009 0)
(0.131346 -0.00838835 0)
(0.132031 -0.0083928 0)
(0.132705 -0.0083825 0)
(0.133367 -0.00835647 0)
(0.134018 -0.00831369 0)
(0.134657 -0.00825308 0)
(0.135284 -0.00817353 0)
(0.135901 -0.00807389 0)
(0.136507 -0.00795298 0)
(0.137103 -0.00780962 0)
(0.137691 -0.00764263 0)
(0.13827 -0.00745086 0)
(0.138843 -0.00723322 0)
(0.139411 -0.00698871 0)
(0.139976 -0.00671648 0)
(0.14054 -0.00641587 0)
(0.141106 -0.00608647 0)
(0.141676 -0.00572816 0)
(0.142254 -0.00534124 0)
(0.142842 -0.00492646 0)
(0.143444 -0.00448509 0)
(0.144062 -0.00401899 0)
(0.144701 -0.00353067 0)
(0.145363 -0.00302332 0)
(0.146052 -0.00250074 0)
(0.146769 -0.00196736 0)
(0.147517 -0.00142801 0)
(0.148296 -0.000887662 0)
(0.149108 -0.000350635 0)
(0.149952 0.000176998 0)
(0.150824 0.000689219 0)
(0.151721 0.0011801 0)
(0.152639 0.00164547 0)
(0.0999911 -0.000351322 0)
(0.1001 -0.000717407 0)
(0.100265 -0.00105418 0)
(0.100481 -0.00136995 0)
(0.10075 -0.00166907 0)
(0.101067 -0.00195409 0)
(0.101428 -0.00222717 0)
(0.10183 -0.00249019 0)
(0.102268 -0.00274469 0)
(0.10274 -0.0029919 0)
(0.103244 -0.00323282 0)
(0.103776 -0.00346827 0)
(0.104334 -0.00369893 0)
(0.104917 -0.00392533 0)
(0.105521 -0.00414791 0)
(0.106147 -0.00436702 0)
(0.106791 -0.00458291 0)
(0.107452 -0.00479579 0)
(0.108129 -0.00500579 0)
(0.10882 -0.005213 0)
(0.109524 -0.00541746 0)
(0.110239 -0.00561916 0)
(0.110965 -0.00581806 0)
(0.111699 -0.00601408 0)
(0.112442 -0.00620712 0)
(0.113191 -0.00639703 0)
(0.113946 -0.00658366 0)
(0.114706 -0.0067668 0)
(0.11547 -0.00694624 0)
(0.116236 -0.00712175 0)
(0.117003 -0.00729304 0)
(0.117772 -0.00745984 0)
(0.118541 -0.00762183 0)
(0.119308 -0.00777867 0)
(0.120074 -0.00793001 0)
(0.120837 -0.00807545 0)