/*--------------------------------*- C++ -*----------------------------------*\
| =========                 |                                                 |
| \\      /  F ield         | OpenFOAM: The Open Source CFD Toolbox           |
|  \\    /   O peration     | Version:  2106                                  |
|   \\  /    A nd           | Website:  www.openfoam.com                      |
|    \\/     M anipulation  |                                                 |
\*---------------------------------------------------------------------------*/
FoamFile
{
    version     2.0;
    format      ascii;
    arch        "LSB;label=32;scalar=64";
    class       surfaceScalarField;
    location    "8.2";
    object      phi;
}
// * * * * * * * * * * * * * * * * * * * * * * * * * * * * * * * * * * * * * //

dimensions      [1 0 -1 0 0 0 0];

oriented        oriented;

internalField   nonuniform List<scalar> 
23692
(
9.31869e-05
-1.07427e-07
9.33814e-05
-1.94524e-07
9.36536e-05
-2.72163e-07
9.39942e-05
-3.40574e-07
9.43961e-05
-4.01881e-07
9.48535e-05
-4.57368e-07
9.53614e-05
-5.0789e-07
9.59156e-05
-5.54129e-07
9.65122e-05
-5.96615e-07
9.71481e-05
-6.35772e-07
9.78201e-05
-6.71943e-07
9.85255e-05
-7.05414e-07
9.9262e-05
-7.36426e-07
0.000100027
-7.65178e-07
0.000100819
-7.91844e-07
0.000101636
-8.16569e-07
0.000102475
-8.39482e-07
0.000103336
-8.60689e-07
0.000104217
-8.80284e-07
0.000105115
-8.98351e-07
0.00010603
-9.14963e-07
0.00010696
-9.30183e-07
0.000107904
-9.44062e-07
0.000108861
-9.56654e-07
0.000109829
-9.67997e-07
0.000110808
-9.78133e-07
0.000111795
-9.87092e-07
0.00011279
-9.94903e-07
0.000113791
-1.00159e-06
0.000114799
-1.00718e-06
0.00011581
-1.01169e-06
0.000116826
-1.01514e-06
0.000117843
-1.01753e-06
0.000118862
-1.01888e-06
0.000119882
-1.0192e-06
0.0001209
-1.01848e-06
0.000121917
-1.01674e-06
0.000122931
-1.01397e-06
0.000123941
-1.01016e-06
0.000124947
-1.00531e-06
0.000125946
-9.9941e-07
0.000126939
-9.92436e-07
0.000127923
-9.84369e-07
0.000128898
-9.75184e-07
0.000129863
-9.64848e-07
0.000130816
-9.5332e-07
0.000131757
-9.40556e-07
0.000132684
-9.26498e-07
0.000133595
-9.1108e-07
0.000134489
-8.94221e-07
0.000135365
-8.75829e-07
0.000136221
-8.55794e-07
0.000137055
-8.33984e-07
0.000137865
-8.10243e-07
0.000138649
-7.84387e-07
0.000139406
-7.56196e-07
0.000140131
-7.25405e-07
0.000140823
-6.91698e-07
0.000141477
-6.54691e-07
0.000142091
-6.13914e-07
0.00014266
-5.68795e-07
0.000143179
-5.18622e-07
0.000143641
-4.62507e-07
0.000144041
-3.99333e-07
0.000144368
-3.27671e-07
0.000144614
-2.45678e-07
0.000144765
-1.50941e-07
0.000144805
-4.02614e-08
0.000144714
9.07285e-08
0.000144466
2.48134e-07
0.000144026
4.40637e-07
0.000143345
6.80873e-07
0.000142357
9.8775e-07
0.000140967
1.3904e-06
0.000139031
1.9351e-06
0.000136334
2.69744e-06
0.00013253
3.8041e-06
0.000127056
5.47353e-06
0.000118946
8.11081e-06
0.000106392
1.25534e-05
2.12257e-05
8.51663e-05
9.97111e-05
-2.19521e-07
9.9918e-05
-4.01498e-07
0.000100208
-5.62453e-07
0.000100572
-7.04034e-07
0.000101001
-8.30954e-07
0.000101489
-9.45813e-07
0.000102032
-1.05038e-06
0.000102624
-1.14608e-06
0.000103261
-1.23401e-06
0.000103941
-1.31504e-06
0.000104659
-1.38988e-06
0.000105413
-1.45914e-06
0.000106199
-1.5233e-06
0.000107017
-1.58278e-06
0.000107863
-1.63795e-06
0.000108736
-1.68909e-06
0.000109633
-1.73648e-06
0.000110553
-1.78034e-06
0.000111493
-1.82086e-06
0.000112453
-1.85822e-06
0.000113431
-1.89257e-06
0.000114425
-1.92403e-06
0.000115434
-1.95272e-06
0.000116456
-1.97873e-06
0.00011749
-2.00217e-06
0.000118535
-2.0231e-06
0.00011959
-2.0416e-06
0.000120653
-2.05773e-06
0.000121723
-2.07153e-06
0.000122799
-2.08305e-06
0.00012388
-2.09233e-06
0.000124964
-2.09942e-06
0.000126051
-2.10432e-06
0.000127139
-2.10706e-06
0.000128228
-2.10766e-06
0.000129315
-2.10614e-06
0.000130401
-2.10248e-06
0.000131484
-2.09669e-06
0.000132563
-2.08876e-06
0.000133636
-2.07868e-06
0.000134703
-2.06641e-06
0.000135763
-2.05193e-06
0.000136814
-2.03519e-06
0.000137855
-2.01613e-06
0.000138885
-1.9947e-06
0.000139902
-1.97081e-06
0.000140906
-1.94436e-06
0.000141895
-1.91525e-06
0.000142867
-1.88332e-06
0.000143821
-1.84843e-06
0.000144756
-1.81037e-06
0.000145669
-1.76893e-06
0.000146559
-1.72384e-06
0.000147423
-1.67477e-06
0.00014826
-1.62136e-06
0.000149067
-1.56316e-06
0.000149842
-1.49963e-06
0.00015058
-1.43013e-06
0.000151279
-1.35389e-06
0.000151935
-1.26995e-06
0.000152544
-1.17717e-06
0.000153099
-1.07412e-06
0.000153596
-9.59033e-07
0.000154026
-8.29679e-07
0.000154382
-6.83237e-07
0.000154652
-5.16082e-07
0.000154825
-3.23504e-07
0.000154884
-9.92981e-08
0.00015481
1.64845e-07
0.000154577
4.80369e-07
0.000154155
8.63275e-07
0.000153499
1.33631e-06
0.000152554
1.93252e-06
0.000151244
2.70089e-06
0.000149464
3.71544e-06
0.000147072
5.08953e-06
0.000143879
6.99691e-06
0.000139652
9.70009e-06
0.000134174
1.35894e-05
0.000127575
1.91518e-05
2.62373e-05
0.000122564
0.000106691
-3.35612e-07
0.00010691
-6.20653e-07
0.000107219
-8.70661e-07
0.000107605
-1.0907e-06
0.000108062
-1.28789e-06
0.000108583
-1.46628e-06
0.000109161
-1.62867e-06
0.000109792
-1.77726e-06
0.000110472
-1.91377e-06
0.000111197
-2.03955e-06
0.000111963
-2.15572e-06
0.000112767
-2.2632e-06
0.000113606
-2.36276e-06
0.000114479
-2.45506e-06
0.000115381
-2.54064e-06
0.000116312
-2.61998e-06
0.000117269
-2.69348e-06
0.000118251
-2.76149e-06
0.000119254
-2.82432e-06
0.000120278
-2.88223e-06
0.000121321
-2.93546e-06
0.000122382
-2.98421e-06
0.000123458
-3.02865e-06
0.000124548
-3.06894e-06
0.000125651
-3.10521e-06
0.000126766
-3.1376e-06
0.00012789
-3.16621e-06
0.000129024
-3.19112e-06
0.000130165
-3.21242e-06
0.000131312
-3.23019e-06
0.000132464
-3.24448e-06
0.00013362
-3.25534e-06
0.000134779
-3.26282e-06
0.000135939
-3.26695e-06
0.000137099
-3.26775e-06
0.000138258
-3.26524e-06
0.000139415
-3.25943e-06
0.000140569
-3.25031e-06
0.000141718
-3.23786e-06
0.000142862
-3.22207e-06
0.000143998
-3.20289e-06
0.000145127
-3.18028e-06
0.000146246
-3.15416e-06
0.000147354
-3.12447e-06
0.000148451
-3.09108e-06
0.000149534
-3.05389e-06
0.000150602
-3.01275e-06
0.000151654
-2.96747e-06
0.000152689
-2.91786e-06
0.000153704
-2.86366e-06
0.000154699
-2.80459e-06
0.00015567
-2.74031e-06
0.000156617
-2.6704e-06
0.000157536
-2.59439e-06
0.000158427
-2.51171e-06
0.000159285
-2.4217e-06
0.000160109
-2.32354e-06
0.000160895
-2.21627e-06
0.00016164
-2.09873e-06
0.00016234
-1.96952e-06
0.00016299
-1.82694e-06
0.000163584
-1.66887e-06
0.000164118
-1.49272e-06
0.000164584
-1.29527e-06
0.000164973
-1.07242e-06
0.000165276
-8.1901e-07
0.000165481
-5.28371e-07
0.000165573
-1.9186e-07
0.000165536
2.01857e-07
0.000165348
6.67967e-07
0.000164985
1.22717e-06
0.000164413
1.90788e-06
0.000163596
2.74958e-06
0.000162489
3.80763e-06
0.000161045
5.15994e-06
0.000159219
6.91531e-06
0.000156994
9.22129e-06
0.000154431
1.22637e-05
0.000151786
1.62346e-05
0.000149771
2.11664e-05
2.63349e-05
0.000149673
0.00011416
-4.55407e-07
0.00011439
-8.51417e-07
0.000114716
-1.19659e-06
0.000115126
-1.50073e-06
0.000115612
-1.77316e-06
0.000116165
-2.01954e-06
0.00011678
-2.24377e-06
0.000117452
-2.4489e-06
0.000118175
-2.63732e-06
0.000118947
-2.8109e-06
0.000119762
-2.9712e-06
0.000120619
-3.11949e-06
0.000121513
-3.25682e-06
0.000122442
-3.38411e-06
0.000123404
-3.50212e-06
0.000124395
-3.61149e-06
0.000125415
-3.7128e-06
0.00012646
-3.80652e-06
0.000127529
-3.89309e-06
0.000128619
-3.97285e-06
0.00012973
-4.04614e-06
0.000130859
-4.11323e-06
0.000132005
-4.17438e-06
0.000133166
-4.22978e-06
0.000134341
-4.27965e-06
0.000135527
-4.32413e-06
0.000136725
-4.36339e-06
0.000137931
-4.39754e-06
0.000139145
-4.42671e-06
0.000140366
-4.45099e-06
0.000141592
-4.47047e-06
0.000142822
-4.48521e-06
0.000144055
-4.49528e-06
0.000145289
-4.50072e-06
0.000146523
-4.50157e-06
0.000147756
-4.49784e-06
0.000148986
-4.48955e-06
0.000150212
-4.4767e-06
0.000151434
-4.45926e-06
0.000152649
-4.43721e-06
0.000153857
-4.41049e-06
0.000155055
-4.37903e-06
0.000156244
-4.34275e-06
0.000157421
-4.30154e-06
0.000158586
-4.25526e-06
0.000159735
-4.20375e-06
0.00016087
-4.14681e-06
0.000161986
-4.0842e-06
0.000163084
-4.01564e-06
0.000164161
-3.94081e-06
0.000165216
-3.85932e-06
0.000166247
-3.77072e-06
0.000167251
-3.67445e-06
0.000168226
-3.56989e-06
0.000169171
-3.45629e-06
0.000170082
-3.33276e-06
0.000170957
-3.19823e-06
0.000171792
-3.05145e-06
0.000172584
-2.89091e-06
0.000173329
-2.71478e-06
0.000174023
-2.52087e-06
0.000174661
-2.30648e-06
0.000175237
-2.06833e-06
0.000175744
-1.80236e-06
0.000176175
-1.50352e-06
0.000176521
-1.16545e-06
0.000176773
-7.8016e-07
0.000176918
-3.3744e-07
0.000176945
1.75718e-07
0.000176836
7.76125e-07
0.000176578
1.48583e-06
0.000176152
2.33385e-06
0.000175543
3.35824e-06
0.000174742
4.6087e-06
0.000173753
6.14917e-06
0.000172609
8.05912e-06
0.0001714
1.043e-05
0.000170315
1.33487e-05
0.000169701
1.68488e-05
0.000170082
2.07853e-05
2.45677e-05
0.000171849
0.000122151
-5.7876e-07
0.000122392
-1.09332e-06
0.000122736
-1.53997e-06
0.000123169
-1.93411e-06
0.000123683
-2.28706e-06
0.00012427
-2.60617e-06
0.000124923
-2.89651e-06
0.000125636
-3.16207e-06
0.000126405
-3.40592e-06
0.000127224
-3.63054e-06
0.000128091
-3.83791e-06
0.000129001
-4.02971e-06
0.000129952
-4.20731e-06
0.00013094
-4.37187e-06
0.000131962
-4.5244e-06
0.000133017
-4.66574e-06
0.0001341
-4.79662e-06
0.000135212
-4.91766e-06
0.000136348
-5.02942e-06
0.000137508
-5.13236e-06
0.000138689
-5.22691e-06
0.000139889
-5.31343e-06
0.000141107
-5.39223e-06
0.000142341
-5.4636e-06
0.000143589
-5.52778e-06
0.00014485
-5.58498e-06
0.000146122
-5.63542e-06
0.000147404
-5.67924e-06
0.000148694
-5.71659e-06
0.000149991
-5.74761e-06
0.000151293
-5.77241e-06
0.000152599
-5.79107e-06
0.000153907
-5.80368e-06
0.000155217
-5.81029e-06
0.000156526
-5.81096e-06
0.000157834
-5.80571e-06
0.00015914
-5.79455e-06
0.00016044
-5.77749e-06
0.000161736
-5.7545e-06
0.000163024
-5.72554e-06
0.000164304
-5.69056e-06
0.000165575
-5.64946e-06
0.000166834
-5.60214e-06
0.000168081
-5.54847e-06
0.000169314
-5.48826e-06
0.000170532
-5.42133e-06
0.000171733
-5.34741e-06
0.000172915
-5.26623e-06
0.000174077
-5.17743e-06
0.000175217
-5.08061e-06
0.000176333
-4.97529e-06
0.000177423
-4.8609e-06
0.000178485
-4.73679e-06
0.000179517
-4.60216e-06
0.000180517
-4.45611e-06
0.000181482
-4.29755e-06
0.000182409
-4.1252e-06
0.000183295
-3.93755e-06
0.000184137
-3.73279e-06
0.000184931
-3.50876e-06
0.000185673
-3.26286e-06
0.000186359
-2.99199e-06
0.000186983
-2.69234e-06
0.00018754
-2.35932e-06
0.000188023
-1.98727e-06
0.000188427
-1.56925e-06
0.000188744
-1.09667e-06
0.000188965
-5.58868e-07
0.000189084
5.73049e-08
0.000189091
7.68167e-07
0.000188983
1.59382e-06
0.000188758
2.55962e-06
0.000188419
3.69646e-06
0.000187987
5.04128e-06
0.0001875
6.63645e-06
0.000187032
8.5268e-06
0.00018671
1.07517e-05
0.000186732
1.33271e-05
0.00018737
1.62104e-05
0.00018892
1.92349e-05
2.20156e-05
0.000191473
0.000130701
-7.05676e-07
0.000130954
-1.34601e-06
0.000131314
-1.90056e-06
0.000131771
-2.39073e-06
0.000132314
-2.82974e-06
0.000132934
-3.22655e-06
0.000133625
-3.58752e-06
0.000134381
-3.91758e-06
0.000135195
-4.2206e-06
0.000136065
-4.49965e-06
0.000136984
-4.75721e-06
0.00013795
-4.99536e-06
0.000138958
-5.21582e-06
0.000140007
-5.42006e-06
0.000141092
-5.60929e-06
0.000142211
-5.78459e-06
0.000143361
-5.94686e-06
0.00014454
-6.09688e-06
0.000145746
-6.23534e-06
0.000146977
-6.36282e-06
0.00014823
-6.47984e-06
0.000149504
-6.58687e-06
0.000150796
-6.68429e-06
0.000152105
-6.77244e-06
0.000153429
-6.85166e-06
0.000154766
-6.92219e-06
0.000156115
-6.98428e-06
0.000157474
-7.03815e-06
0.000158842
-7.08397e-06
0.000160216
-7.12191e-06
0.000161596
-7.1521e-06
0.00016298
-7.17467e-06
0.000164366
-7.1897e-06
0.000165753
-7.19728e-06
0.000167139
-7.19747e-06
0.000168524
-7.1903e-06
0.000169905
-7.17581e-06
0.000171282
-7.15398e-06
0.000172652
-7.12479e-06
0.000174015
-7.08821e-06
0.000175369
-7.04416e-06
0.000176712
-6.99254e-06
0.000178043
-6.93323e-06
0.000179361
-6.86606e-06
0.000180664
-6.79084e-06
0.00018195
-6.70732e-06
0.000183218
-6.61523e-06
0.000184466
-6.5142e-06
0.000185692
-6.40385e-06
0.000186895
-6.28369e-06
0.000188073
-6.15315e-06
0.000189224
-6.0116e-06
0.000190345
-5.85824e-06
0.000191435
-5.6922e-06
0.000192492
-5.5124e-06
0.000193512
-5.31763e-06
0.000194493
-5.10641e-06
0.000195433
-4.87705e-06
0.000196327
-4.62753e-06
0.000197174
-4.35546e-06
0.000197969
-4.05801e-06
0.000198709
-3.73181e-06
0.00019939
-3.37285e-06
0.000200007
-2.97631e-06
0.000200556
-2.53642e-06
0.000201033
-2.04626e-06
0.000201434
-1.49749e-06
0.000201755
-8.80115e-07
0.000201994
-1.82221e-07
0.000202152
6.10168e-07
0.000202233
1.51304e-06
0.000202247
2.5453e-06
0.000202216
3.72807e-06
0.000202173
5.0837e-06
0.000202176
6.63363e-06
0.000202309
8.39432e-06
0.00020269
1.03699e-05
0.000203478
1.25398e-05
0.000204848
1.48396e-05
0.000206949
1.71347e-05
1.91971e-05
0.000209767
0.00013985
-8.36247e-07
0.000140113
-1.60922e-06
0.000140491
-2.27812e-06
0.000140971
-2.87045e-06
0.000141542
-3.40122e-06
0.000142197
-3.88092e-06
0.000142926
-4.31722e-06
0.000143725
-4.71608e-06
0.000144586
-5.08218e-06
0.000145506
-5.41921e-06
0.000146479
-5.73022e-06
0.000147502
-6.0177e-06
0.00014857
-6.28375e-06
0.00014968
-6.53012e-06
0.000150829
-6.75833e-06
0.000152014
-6.96966e-06
0.000153233
-7.16519e-06
0.000154482
-7.34589e-06
0.000155759
-7.51259e-06
0.000157062
-7.66599e-06
0.000158389
-7.80672e-06
0.000159738
-7.93534e-06
0.000161106
-8.05232e-06
0.000162492
-8.15809e-06
0.000163894
-8.25303e-06
0.000165309
-8.33746e-06
0.000166736
-8.41168e-06
0.000168174
-8.47593e-06
0.000169621
-8.53045e-06
0.000171075
-8.57542e-06
0.000172534
-8.61103e-06
0.000173997
-8.63741e-06
0.000175462
-8.65468e-06
0.000176927
-8.66295e-06
0.000178392
-8.66229e-06
0.000179855
-8.65275e-06
0.000181314
-8.63435e-06
0.000182767
-8.60712e-06
0.000184213
-8.57102e-06
0.000185651
-8.52601e-06
0.000187079
-8.47201e-06
0.000188496
-8.40892e-06
0.000189899
-8.3366e-06
0.000191288
-8.25486e-06
0.000192661
-8.16348e-06
0.000194016
-8.0622e-06
0.000195351
-7.95069e-06
0.000196666
-7.82856e-06
0.000197957
-7.69537e-06
0.000199224
-7.55057e-06
0.000200465
-7.39354e-06
0.000201677
-7.22356e-06
0.000202858
-7.03979e-06
0.000204007
-6.84122e-06
0.000205122
-6.62672e-06
0.000206199
-6.39495e-06
0.000207237
-6.14435e-06
0.000208233
-5.87311e-06
0.000209185
-5.5791e-06
0.000210089
-5.25986e-06
0.000210944
-4.91249e-06
0.000211745
-4.53361e-06
0.000212492
-4.11927e-06
0.00021318
-3.66482e-06
0.000213809
-3.16487e-06
0.000214376
-2.6131e-06
0.00021488
-2.00221e-06
0.000215324
-1.32378e-06
0.00021571
-5.68251e-07
0.000216045
2.75038e-07
0.000216341
1.21702e-06
0.000216617
2.26914e-06
0.000216902
3.44286e-06
0.000217238
4.74779e-06
0.000217683
6.18946e-06
0.000218311
7.76597e-06
0.000219218
9.46307e-06
0.00022051
1.12476e-05
0.00022229
1.30597e-05
0.000224619
1.48051e-05
1.6356e-05
0.00022746
0.00014964
-9.70649e-07
0.000149913
-1.88276e-06
0.000150308
-2.67248e-06
0.00015081
-3.37309e-06
0.000151411
-4.00141e-06
0.000152099
-4.56935e-06
0.000152868
-5.08587e-06
0.00015371
-5.55799e-06
0.000154619
-5.99123e-06
0.00015559
-6.38996e-06
0.000156617
-6.7578e-06
0.000157697
-7.0977e-06
0.000158826
-7.41215e-06
0.000159999
-7.70325e-06
0.000161214
-7.97278e-06
0.000162467
-8.22225e-06
0.000163754
-8.45299e-06
0.000165075
-8.66611e-06
0.000166425
-8.8626e-06
0.000167802
-9.04331e-06
0.000169205
-9.20899e-06
0.00017063
-9.36029e-06
0.000172076
-9.49778e-06
0.00017354
-9.62196e-06
0.00017502
-9.73329e-06
0.000176515
-9.83215e-06
0.000178022
-9.9189e-06
0.00017954
-9.99383e-06
0.000181067
-1.00572e-05
0.000182601
-1.01093e-05
0.000184141
-1.01503e-05
0.000185684
-1.01803e-05
0.000187229
-1.01996e-05
0.000188774
-1.02082e-05
0.000190318
-1.02062e-05
0.000191859
-1.01938e-05
0.000193396
-1.01708e-05
0.000194926
-1.01375e-05
0.000196449
-1.00937e-05
0.000197963
-1.00394e-05
0.000199465
-9.9745e-06
0.000200955
-9.89894e-06
0.000202431
-9.81254e-06
0.000203892
-9.71512e-06
0.000205335
-9.60643e-06
0.000206759
-9.48619e-06
0.000208162
-9.35405e-06
0.000209543
-9.2096e-06
0.0002109
-9.05235e-06
0.000212232
-8.88174e-06
0.000213535
-8.69709e-06
0.000214809
-8.49765e-06
0.000216052
-8.28253e-06
0.000217262
-8.05069e-06
0.000218436
-7.80094e-06
0.000219573
-7.53193e-06
0.000220671
-7.24206e-06
0.000221727
-6.92952e-06
0.00022274
-6.59222e-06
0.000223708
-6.22776e-06
0.000224629
-5.83339e-06
0.000225502
-5.40593e-06
0.000226324
-4.9418e-06
0.000227096
-4.43689e-06
0.000227818
-3.88659e-06
0.00022849
-3.2857e-06
0.000229117
-2.6285e-06
0.000229702
-1.90876e-06
0.000230253
-1.11984e-06
0.000230783
-2.5484e-07
0.000231308
6.926e-07
0.00023185
1.72703e-06
0.000232441
2.85189e-06
0.000233121
4.06763e-06
0.00023394
5.3699e-06
0.000234959
6.74742e-06
0.000236242
8.1795e-06
0.000237857
9.63343e-06
0.000239854
1.10624e-05
0.000242254
1.24054e-05
1.35921e-05
0.000245017
0.000160115
-1.10908e-06
0.000160399
-2.16655e-06
0.00016081
-3.08349e-06
0.000161335
-3.89848e-06
0.000161964
-4.6302e-06
0.000162687
-5.2918e-06
0.000163494
-5.89355e-06
0.00016438
-6.44352e-06
0.000165337
-6.94808e-06
0.000166359
-7.41236e-06
0.000167442
-7.84053e-06
0.000168581
-8.23604e-06
0.00016977
-8.60181e-06
0.000171007
-8.94028e-06
0.000172288
-9.25353e-06
0.00017361
-9.54334e-06
0.000174968
-9.81125e-06
0.000176361
-1.00586e-05
0.000177785
-1.02864e-05
0.000179237
-1.04959e-05
0.000180716
-1.06877e-05
0.000182219
-1.08628e-05
0.000183743
-1.10217e-05
0.000185286
-1.11651e-05
0.000186846
-1.12934e-05
0.000188422
-1.14072e-05
0.00019001
-1.15068e-05
0.000191609
-1.15927e-05
0.000193217
-1.16651e-05
0.000194832
-1.17243e-05
0.000196452
-1.17705e-05
0.000198076
-1.1804e-05
0.000199701
-1.18249e-05
0.000201327
-1.18334e-05
0.00020295
-1.18296e-05
0.00020457
-1.18137e-05
0.000206185
-1.17855e-05
0.000207793
-1.17453e-05
0.000209393
-1.16929e-05
0.000210982
-1.16284e-05
0.000212559
-1.15516e-05
0.000214123
-1.14626e-05
0.000215671
-1.1361e-05
0.000217203
-1.12468e-05
0.000218716
-1.11196e-05
0.000220209
-1.09793e-05
0.000221681
-1.08254e-05
0.000223129
-1.06575e-05
0.000224552
-1.04751e-05
0.000225948
-1.02776e-05
0.000227315
-1.00645e-05
0.000228652
-9.83481e-06
0.000229958
-9.58776e-06
0.000231229
-9.32231e-06
0.000232466
-9.03729e-06
0.000233665
-8.73138e-06
0.000234826
-8.40307e-06
0.000235947
-8.05066e-06
0.000237027
-7.67221e-06
0.000238065
-7.26557e-06
0.00023906
-6.82828e-06
0.000240012
-6.35765e-06
0.000240921
-5.85069e-06
0.000241788
-5.30411e-06
0.000242616
-4.71438e-06
0.000243408
-4.07776e-06
0.00024417
-3.39037e-06
0.000244909
-2.64837e-06
0.000245638
-1.8481e-06
0.000246369
-9.86387e-07
0.000247122
-6.06823e-08
0.00024792
9.29349e-07
0.000248791
1.98081e-06
0.00024977
3.0887e-06
0.000250896
4.24384e-06
0.000252212
5.43187e-06
0.000253759
6.6324e-06
0.000255574
7.81838e-06
0.00025768
8.95647e-06
0.000260076
1.00087e-05
1.09367e-05
0.000262732
0.000171324
-1.25174e-06
0.000171618
-2.46053e-06
0.000172045
-3.51105e-06
0.000172593
-4.44644e-06
0.00017325
-5.28737e-06
0.000174007
-6.04813e-06
0.000174853
-6.74017e-06
0.000175783
-7.37265e-06
0.000176788
-7.95284e-06
0.000177862
-8.48659e-06
0.000179
-8.97867e-06
0.000180197
-9.43308e-06
0.000181449
-9.85315e-06
0.00018275
-1.02417e-05
0.000184098
-1.06011e-05
0.000185488
-1.09335e-05
0.000186918
-1.12406e-05
0.000188383
-1.15239e-05
0.000189882
-1.17847e-05
0.00019141
-1.20243e-05
0.000192966
-1.22435e-05
0.000194547
-1.24434e-05
0.00019615
-1.26246e-05
0.000197773
-1.27879e-05
0.000199414
-1.29339e-05
0.00020107
-1.30631e-05
0.000202739
-1.31759e-05
0.000204419
-1.32729e-05
0.000206109
-1.33543e-05
0.000207805
-1.34205e-05
0.000209507
-1.34718e-05
0.000211211
-1.35085e-05
0.000212917
-1.35307e-05
0.000214623
-1.35386e-05
0.000216326
-1.35324e-05
0.000218024
-1.35123e-05
0.000219717
-1.34781e-05
0.000221402
-1.34302e-05
0.000223078
-1.33683e-05
0.000224742
-1.32926e-05
0.000226394
-1.3203e-05
0.000228031
-1.30994e-05
0.000229651
-1.29816e-05
0.000231254
-1.28494e-05
0.000232837
-1.27028e-05
0.000234399
-1.25412e-05
0.000235938
-1.23645e-05
0.000237453
-1.21721e-05
0.000238942
-1.19637e-05
0.000240403
-1.17387e-05
0.000241835
-1.14964e-05
0.000243236
-1.12361e-05
0.000244606
-1.09569e-05
0.000245941
-1.0658e-05
0.000247242
-1.03383e-05
0.000248508
-9.99646e-06
0.000249736
-9.63128e-06
0.000250926
-9.24123e-06
0.000252079
-8.82469e-06
0.000253193
-8.37984e-06
0.00025427
-7.90476e-06
0.000255309
-7.39734e-06
0.000256314
-6.85539e-06
0.000257287
-6.27662e-06
0.000258231
-5.65875e-06
0.000259153
-4.99955e-06
0.00026006
-4.29702e-06
0.000260961
-3.54953e-06
0.000261869
-2.75605e-06
0.000262799
-1.91639e-06
0.000263769
-1.03144e-06
0.000264802
-1.03143e-07
0.000265919
8.6327e-07
0.000267148
1.85955e-06
0.000268517
2.87483e-06
0.000270054
3.89536e-06
0.000271782
4.90389e-06
0.000273721
5.88017e-06
0.000275875
6.80168e-06
0.000278239
7.64534e-06
8.39041e-06
0.000280785
0.000183317
-1.39882e-06
0.000183621
-2.76465e-06
0.000184065
-3.955e-06
0.000184636
-5.01677e-06
0.000185321
-5.97267e-06
0.000186111
-6.83805e-06
0.000186996
-7.62548e-06
0.000187969
-8.34519e-06
0.000189021
-9.00534e-06
0.000190148
-9.61253e-06
0.000191341
-1.01722e-05
0.000192597
-1.06888e-05
0.00019391
-1.11662e-05
0.000195276
-1.16076e-05
0.000196691
-1.20157e-05
0.00019815
-1.23928e-05
0.000199651
-1.27411e-05
0.00020119
-1.30622e-05
0.000202763
-1.33576e-05
0.000204367
-1.36286e-05
0.000206
-1.38765e-05
0.000207659
-1.41022e-05
0.000209341
-1.43066e-05
0.000211044
-1.44905e-05
0.000212765
-1.46547e-05
0.000214502
-1.47996e-05
0.000216252
-1.49259e-05
0.000218014
-1.50341e-05
0.000219784
-1.51246e-05
0.000221561
-1.51977e-05
0.000223344
-1.52539e-05
0.000225129
-1.52934e-05
0.000226915
-1.53164e-05
0.000228699
-1.53232e-05
0.000230481
-1.53139e-05
0.000232258
-1.52888e-05
0.000234028
-1.52479e-05
0.000235789
-1.51914e-05
0.00023754
-1.51191e-05
0.000239279
-1.50313e-05
0.000241004
-1.49278e-05
0.000242713
-1.48085e-05
0.000244405
-1.46735e-05
0.000246078
-1.45224e-05
0.000247731
-1.43551e-05
0.000249361
-1.41715e-05
0.000250968
-1.3971e-05
0.000252549
-1.37535e-05
0.000254104
-1.35184e-05
0.00025563
-1.32652e-05
0.000257128
-1.29935e-05
0.000258594
-1.27025e-05
0.000260029
-1.23916e-05
0.000261431
-1.20599e-05
0.000262799
-1.17065e-05
0.000264133
-1.13305e-05
0.000265433
-1.09307e-05
0.000266697
-1.0506e-05
0.000267928
-1.00551e-05
0.000269125
-9.57685e-06
0.00027029
-9.06975e-06
0.000271425
-8.53248e-06
0.000272533
-7.96371e-06
0.000273619
-7.36222e-06
0.000274687
-6.72694e-06
0.000275745
-6.05708e-06
0.0002768
-5.35229e-06
0.000277863
-4.61275e-06
0.000278947
-3.83941e-06
0.000280064
-3.03417e-06
0.000281233
-2.20006e-06
0.000282471
-1.34131e-06
0.000283798
-4.63094e-07
0.000285231
4.26575e-07
0.000286788
1.31741e-06
0.000288486
2.19707e-06
0.000290338
3.05202e-06
0.00029235
3.86806e-06
0.000294521
4.63045e-06
0.000296841
5.32542e-06
5.94191e-06
0.00029929
0.00019615
-1.55046e-06
0.000196464
-3.07886e-06
0.000196925
-4.41517e-06
0.000197517
-5.60918e-06
0.00019823
-6.68572e-06
0.000199053
-7.66113e-06
0.000199977
-8.54902e-06
0.000200993
-9.36066e-06
0.000202092
-1.01051e-05
0.00020327
-1.07897e-05
0.000204518
-1.14206e-05
0.000205832
-1.20028e-05
0.000207207
-1.25406e-05
0.000208637
-1.30375e-05
0.000210118
-1.34968e-05
0.000211647
-1.3921e-05
0.000213218
-1.43124e-05
0.000214829
-1.4673e-05
0.000216476
-1.50045e-05
0.000218156
-1.53085e-05
0.000219866
-1.55861e-05
0.000221603
-1.58387e-05
0.000223364
-1.60671e-05
0.000225146
-1.62723e-05
0.000226946
-1.6455e-05
0.000228763
-1.66161e-05
0.000230593
-1.67561e-05
0.000232435
-1.68756e-05
0.000234285
-1.6975e-05
0.000236143
-1.70549e-05
0.000238005
-1.71156e-05
0.000239869
-1.71574e-05
0.000241734
-1.71808e-05
0.000243596
-1.71858e-05
0.000245455
-1.71728e-05
0.000247309
-1.7142e-05
0.000249155
-1.70935e-05
0.000250991
-1.70275e-05
0.000252816
-1.69439e-05
0.000254628
-1.6843e-05
0.000256425
-1.67246e-05
0.000258205
-1.65888e-05
0.000259967
-1.64354e-05
0.000261709
-1.62645e-05
0.00026343
-1.60758e-05
0.000265128
-1.58692e-05
0.000266801
-1.56443e-05
0.000268449
-1.5401e-05
0.00027007
-1.51389e-05
0.000271662
-1.48575e-05
0.000273225
-1.45565e-05
0.000274758
-1.42352e-05
0.00027626
-1.38933e-05
0.00027773
-1.353e-05
0.000279168
-1.31447e-05
0.000280574
-1.27366e-05
0.000281949
-1.23051e-05
0.000283292
-1.18493e-05
0.000284605
-1.13685e-05
0.00028589
-1.08619e-05
0.00028715
-1.03289e-05
0.000288386
-9.76878e-06
0.000289603
-9.1811e-06
0.000290807
-8.56562e-06
0.000292002
-7.92237e-06
0.000293197
-7.25176e-06
0.000294399
-6.5547e-06
0.000295619
-5.8327e-06
0.000296868
-5.088e-06
0.000298157
-4.32368e-06
0.000299501
-3.54378e-06
0.000300913
-2.75334e-06
0.000302408
-1.95831e-06
0.000304
-1.16534e-06
0.0003057
-3.82083e-07
0.000307515
3.82127e-07
0.000309449
1.11723e-06
0.000311504
1.81316e-06
0.000313675
2.46014e-06
0.00031595
3.04999e-06
3.5771e-06
0.000318315
0.000209882
-1.70673e-06
0.000210206
-3.40305e-06
0.000210682
-4.89126e-06
0.000211296
-6.22326e-06
0.000212037
-7.42598e-06
0.000212892
-8.51672e-06
0.000213853
-9.51008e-06
0.000214911
-1.04183e-05
0.000216058
-1.12514e-05
0.000217285
-1.20174e-05
0.000218588
-1.27231e-05
0.00021996
-1.33742e-05
0.000221394
-1.39753e-05
0.000222888
-1.45306e-05
0.000224435
-1.50435e-05
0.000226031
-1.5517e-05
0.000227672
-1.59535e-05
0.000229355
-1.63554e-05
0.000231075
-1.67246e-05
0.000232829
-1.70627e-05
0.000234615
-1.73712e-05
0.000236428
-1.76515e-05
0.000238266
-1.79047e-05
0.000240125
-1.81317e-05
0.000242004
-1.83336e-05
0.000243899
-1.85111e-05
0.000245808
-1.86649e-05
0.000247728
-1.87956e-05
0.000249657
-1.89039e-05
0.000251593
-1.89902e-05
0.000253533
-1.90551e-05
0.000255474
-1.90988e-05
0.000257416
-1.91219e-05
0.000259355
-1.91246e-05
0.000261289
-1.91071e-05
0.000263217
-1.90698e-05
0.000265137
-1.90129e-05
0.000267046
-1.89364e-05
0.000268943
-1.88407e-05
0.000270825
-1.87257e-05
0.000272693
-1.85915e-05
0.000274542
-1.84382e-05
0.000276373
-1.82658e-05
0.000278182
-1.80742e-05
0.00027997
-1.78633e-05
0.000281734
-1.76332e-05
0.000283473
-1.73835e-05
0.000285187
-1.71141e-05
0.000286873
-1.68249e-05
0.000288531
-1.65155e-05
0.00029016
-1.61856e-05
0.00029176
-1.5835e-05
0.00029333
-1.54632e-05
0.00029487
-1.507e-05
0.00029638
-1.46549e-05
0.000297861
-1.42175e-05
0.000299314
-1.37576e-05
0.000300739
-1.32747e-05
0.000302139
-1.27685e-05
0.000303517
-1.2239e-05
0.000304874
-1.1686e-05
0.000306214
-1.11096e-05
0.000307543
-1.05101e-05
0.000308866
-9.88806e-06
0.000310188
-9.24444e-06
0.000311517
-8.58053e-06
0.00031286
-7.89808e-06
0.000314227
-7.19941e-06
0.000315626
-6.48743e-06
0.000317068
-5.76569e-06
0.000318563
-5.03843e-06
0.00032012
-4.31057e-06
0.000321749
-3.58762e-06
0.00032346
-2.87559e-06
0.000325258
-2.18087e-06
0.00032715
-1.50963e-06
0.000329136
-8.68091e-07
0.000331211
-2.62686e-07
0.000333371
3.0056e-07
0.000335604
8.16669e-07
1.28263e-06
0.000337899
0.000224575
-1.86764e-06
0.000224909
-3.73704e-06
0.0002254
-5.38284e-06
0.000226036
-6.85842e-06
0.000226802
-8.19268e-06
0.00022769
-9.40392e-06
0.000228687
-1.05076e-05
0.000229786
-1.1517e-05
0.000230978
-1.24429e-05
0.000232255
-1.32942e-05
0.00023361
-1.40784e-05
0.000235037
-1.48016e-05
0.000236531
-1.54691e-05
0.000238086
-1.60853e-05
0.000239697
-1.66542e-05
0.000241359
-1.71791e-05
0.000243069
-1.76627e-05
0.000244821
-1.81075e-05
0.000246613
-1.85158e-05
0.000248439
-1.88893e-05
0.000250298
-1.92298e-05
0.000252186
-1.95387e-05
0.000254098
-1.98173e-05
0.000256034
-2.00667e-05
0.000257988
-2.0288e-05
0.00025996
-2.04821e-05
0.000261945
-2.06497e-05
0.000263941
-2.07917e-05
0.000265946
-2.09086e-05
0.000267957
-2.10011e-05
0.000269972
-2.10696e-05
0.000271988
-2.11148e-05
0.000274003
-2.1137e-05
0.000276015
-2.11366e-05
0.000278022
-2.11139e-05
0.000280022
-2.10693e-05
0.000282013
-2.10031e-05
0.000283992
-2.09154e-05
0.000285958
-2.08066e-05
0.000287909
-2.06767e-05
0.000289843
-2.05259e-05
0.00029176
-2.03543e-05
0.000293656
-2.01621e-05
0.000295531
-1.99492e-05
0.000297384
-1.97157e-05
0.000299213
-1.94617e-05
0.000301016
-1.9187e-05
0.000302794
-1.88916e-05
0.000304545
-1.85755e-05
0.000306268
-1.82387e-05
0.000307963
-1.78809e-05
0.000309631
-1.75021e-05
0.00031127
-1.71022e-05
0.000312881
-1.66811e-05
0.000314465
-1.62387e-05
0.000316022
-1.57751e-05
0.000317555
-1.52903e-05
0.000319065
-1.47843e-05
0.000320554
-1.42574e-05
0.000322025
-1.37099e-05
0.000323481
-1.31423e-05
0.000324927
-1.25553e-05
0.000326367
-1.19499e-05
0.000327806
-1.13272e-05
0.00032925
-1.06887e-05
0.000330706
-1.00363e-05
0.00033218
-9.37237e-06
0.00033368
-8.69944e-06
0.000335214
-8.02067e-06
0.000336787
-7.3396e-06
0.000338409
-6.66018e-06
0.000340085
-5.98673e-06
0.000341822
-5.32388e-06
0.000343622
-4.67643e-06
0.000345491
-4.04925e-06
0.000347428
-3.4471e-06
0.000349435
-2.87451e-06
0.000351508
-2.33557e-06
0.000353641
-1.83326e-06
0.000355828
-1.3698e-06
-9.46479e-07
0.000358057
0.000240296
-2.0331e-06
0.000240639
-4.08049e-06
0.000241146
-5.88929e-06
0.000241801
-7.5138e-06
0.000242593
-8.98474e-06
0.000243511
-1.03214e-05
0.000244544
-1.15401e-05
0.000245682
-1.26551e-05
0.000246917
-1.36779e-05
0.000248241
-1.46183e-05
0.000249647
-1.54843e-05
0.000251129
-1.62828e-05
0.000252679
-1.70195e-05
0.000254294
-1.76993e-05
0.000255966
-1.83266e-05
0.000257692
-1.89048e-05
0.000259467
-1.94373e-05
0.000261286
-1.99267e-05
0.000263146
-2.03754e-05
0.000265042
-2.07855e-05
0.000266972
-2.11589e-05
0.00026893
-2.14972e-05
0.000270915
-2.18018e-05
0.000272923
-2.2074e-05
0.00027495
-2.23149e-05
0.000276994
-2.25257e-05
0.000279051
-2.27072e-05
0.00028112
-2.28601e-05
0.000283197
-2.29854e-05
0.00028528
-2.30837e-05
0.000287366
-2.31555e-05
0.000289453
-2.32015e-05
0.000291539
-2.32222e-05
0.00029362
-2.3218e-05
0.000295696
-2.31894e-05
0.000297764
-2.31367e-05
0.000299821
-2.30604e-05
0.000301867
-2.29607e-05
0.000303898
-2.28379e-05
0.000305914
-2.26924e-05
0.000307913
-2.25243e-05
0.000309892
-2.23338e-05
0.000311852
-2.21212e-05
0.000313789
-2.18867e-05
0.000315704