/*--------------------------------*- C++ -*----------------------------------*\
| =========                 |                                                 |
| \\      /  F ield         | OpenFOAM: The Open Source CFD Toolbox           |
|  \\    /   O peration     | Version:  2106                                  |
|   \\  /    A nd           | Website:  www.openfoam.com                      |
|    \\/     M anipulation  |                                                 |
\*---------------------------------------------------------------------------*/
FoamFile
{
    version     2.0;
    format      ascii;
    arch        "LSB;label=32;scalar=64";
    class       volScalarField;
    location    "8.2";
    object      T;
}
// * * * * * * * * * * * * * * * * * * * * * * * * * * * * * * * * * * * * * //

dimensions      [0 0 0 1 0 0 0];

internalField   nonuniform List<scalar> 
12013
(
300.004
300.011
300.018
300.026
300.035
300.043
300.052
300.061
300.071
300.081
300.091
300.102
300.113
300.124
300.136
300.148
300.161
300.174
300.188
300.202
300.216
300.231
300.246
300.262
300.279
300.296
300.313
300.331
300.35
300.369
300.388
300.408
300.429
300.451
300.473
300.495
300.519
300.543
300.568
300.593
300.619
300.646
300.674
300.702
300.731
300.761
300.792
300.824
300.856
300.89
300.924
300.96
300.996
301.034
301.072
301.112
301.153
301.195
301.238
301.282
301.328
301.376
301.425
301.475
301.527
301.581
301.637
301.695
301.755
301.817
301.883
301.951
302.022
302.097
302.176
302.261
302.351
302.45
302.558
302.682
302.829
300.004
300.011
300.018
300.026
300.035
300.043
300.052
300.061
300.071
300.081
300.091
300.102
300.113
300.124
300.136
300.148
300.161
300.174
300.188
300.202
300.216
300.231
300.246
300.262
300.279
300.296
300.313
300.331
300.35
300.369
300.388
300.408
300.429
300.451
300.473
300.495
300.519
300.543
300.567
300.593
300.619
300.646
300.673
300.702
300.731
300.761
300.792
300.824
300.856
300.89
300.924
300.959
300.996
301.033
301.072
301.112
301.152
301.194
301.237
301.282
301.328
301.375
301.424
301.474
301.526
301.58
301.636
301.694
301.754
301.816
301.881
301.949
302.02
302.094
302.173
302.256
302.345
302.441
302.546
302.66
302.787
300.004
300.011
300.018
300.026
300.035
300.043
300.052
300.061
300.071
300.081
300.091
300.102
300.113
300.124
300.136
300.148
300.161
300.174
300.188
300.202
300.216
300.231
300.246
300.262
300.279
300.296
300.313
300.331
300.349
300.369
300.388
300.408
300.429
300.451
300.473
300.495
300.519
300.543
300.567
300.593
300.619
300.646
300.673
300.702
300.731
300.761
300.792
300.823
300.856
300.889
300.924
300.959
300.996
301.033
301.071
301.111
301.152
301.194
301.237
301.281
301.327
301.374
301.423
301.473
301.525
301.579
301.634
301.691
301.751
301.813
301.877
301.944
302.014
302.088
302.165
302.247
302.333
302.424
302.522
302.625
302.732
300.004
300.011
300.018
300.026
300.035
300.043
300.052
300.061
300.071
300.081
300.091
300.102
300.113
300.124
300.136
300.148
300.161
300.174
300.188
300.202
300.216
300.231
300.246
300.262
300.279
300.296
300.313
300.331
300.349
300.368
300.388
300.408
300.429
300.451
300.473
300.495
300.519
300.543
300.567
300.593
300.619
300.646
300.673
300.701
300.731
300.761
300.791
300.823
300.855
300.889
300.923
300.959
300.995
301.032
301.071
301.11
301.151
301.192
301.235
301.28
301.325
301.372
301.421
301.471
301.522
301.576
301.631
301.688
301.747
301.808
301.871
301.937
302.006
302.078
302.153
302.231
302.314
302.399
302.489
302.581
302.675
300.004
300.011
300.018
300.026
300.035
300.043
300.052
300.061
300.071
300.081
300.091
300.102
300.113
300.124
300.136
300.148
300.161
300.174
300.188
300.202
300.216
300.231
300.246
300.262
300.279
300.295
300.313
300.331
300.349
300.368
300.388
300.408
300.429
300.45
300.472
300.495
300.518
300.542
300.567
300.592
300.618
300.645
300.673
300.701
300.73
300.76
300.791
300.822
300.855
300.888
300.922
300.958
300.994
301.031
301.069
301.109
301.149
301.191
301.234
301.278
301.323
301.37
301.418
301.467
301.519
301.571
301.626
301.682
301.74
301.8
301.863
301.927
301.994
302.064
302.136
302.211
302.289
302.369
302.45
302.533
302.616
300.004
300.011
300.018
300.026
300.035
300.043
300.052
300.061
300.071
300.081
300.091
300.102
300.113
300.124
300.136
300.148
300.161
300.174
300.188
300.201
300.216
300.231
300.246
300.262
300.279
300.295
300.313
300.331
300.349
300.368
300.388
300.408
300.429
300.45
300.472
300.495
300.518
300.542
300.567
300.592
300.618
300.645
300.672
300.7
300.73
300.759
300.79
300.822
300.854
300.887
300.921
300.956
300.992
301.03
301.068
301.107
301.147
301.188
301.231
301.275
301.32
301.366
301.414
301.463
301.513
301.566
301.619
301.675
301.732
301.791
301.852
301.914
301.979
302.046
302.115
302.186
302.259
302.333
302.408
302.483
302.557
300.004
300.011
300.018
300.026
300.035
300.043
300.052
300.061
300.071
300.081
300.091
300.102
300.113
300.124
300.136
300.148
300.161
300.174
300.187
300.201
300.216
300.231
300.246
300.262
300.278
300.295
300.313
300.331
300.349
300.368
300.388
300.408
300.429
300.45
300.472
300.495
300.518
300.542
300.566
300.592
300.617
300.644
300.672
300.7
300.729
300.758
300.789
300.82
300.853
300.886
300.92
300.955
300.991
301.028
301.065
301.104
301.144
301.185
301.228
301.271
301.316
301.361
301.409
301.457
301.507
301.558
301.611
301.665
301.721
301.778
301.837
301.898
301.96
302.024
302.09
302.156
302.224
302.293
302.361
302.43
302.497
300.004
300.011
300.018
300.026
300.035
300.043
300.052
300.061
300.071
300.081
300.091
300.102
300.113
300.124
300.136
300.148
300.161
300.174
300.187
300.201
300.216
300.231
300.246
300.262
300.278
300.295
300.313
300.33
300.349
300.368
300.387
300.408
300.428
300.45
300.472
300.494
300.517
300.541
300.566
300.591
300.617
300.643
300.671
300.699
300.728
300.757
300.788
300.819
300.851
300.884
300.918
300.953
300.988
301.025
301.063
301.101
301.141
301.182
301.223
301.266
301.31
301.355
301.402
301.45
301.498
301.549
301.6
301.653
301.707
301.763
301.82
301.878
301.938
301.999
302.061
302.123
302.186
302.25
302.313
302.375
302.437
300.004
300.011
300.018
300.026
300.035
300.043
300.052
300.061
300.071
300.081
300.091
300.102
300.113
300.124
300.136
300.148
300.161
300.174
300.187
300.201
300.216
300.231
300.246
300.262
300.278
300.295
300.312
300.33
300.349
300.368
300.387
300.407
300.428
300.449
300.471
300.494
300.517
300.541
300.565
300.59
300.616
300.642
300.67
300.698
300.726
300.756
300.786
300.817
300.849
300.882
300.916
300.95
300.985
301.022
301.059
301.097
301.136
301.177
301.218
301.26
301.304
301.348
301.394
301.44
301.488
301.537
301.588
301.639
301.691
301.745
301.8
301.856
301.912
301.97
302.028
302.087
302.145
302.204
302.262
302.32
302.376
300.004
300.011
300.018
300.026
300.035
300.043
300.052
300.061
300.071
300.081
300.091
300.101
300.113
300.124
300.136
300.148
300.161
300.174
300.187
300.201
300.216
300.23
300.246
300.262
300.278
300.295
300.312
300.33
300.348
300.367
300.387
300.407
300.427
300.449
300.47
300.493
300.516
300.54
300.564
300.589
300.615
300.641
300.668
300.696
300.725
300.754
300.784
300.815
300.847
300.879
300.913
300.947
300.982
301.018
301.055
301.092
301.131
301.171
301.211
301.253
301.296
301.339
301.384
301.429
301.476
301.524
301.572
301.622
301.673
301.724
301.777
301.83
301.883
301.938
301.992
302.047
302.102
302.156
302.21
302.263
302.315
300.004
300.011
300.018
300.026
300.034
300.043
300.052
300.061
300.071
300.081
300.091
300.101
300.112
300.124
300.136
300.148
300.161
300.174
300.187
300.201
300.215
300.23
300.246
300.261
300.278
300.294
300.312
300.33
300.348
300.367
300.386
300.406
300.427
300.448
300.47
300.492
300.515
300.539
300.563
300.588
300.614
300.64
300.667
300.694
300.723
300.752
300.782
300.812
300.844
300.876
300.909
300.943
300.978
301.013
301.049
301.087
301.125
301.164
301.204
301.244
301.286
301.329
301.372
301.417
301.462
301.508
301.555
301.603
301.651
301.701
301.75
301.801
301.852
301.903
301.954
302.005
302.056
302.107
302.157
302.206
302.254
300.004
300.011
300.018
300.026
300.034
300.043
300.052
300.061
300.071
300.08
300.091
300.101
300.112
300.124
300.136
300.148
300.16
300.173
300.187
300.201
300.215
300.23
300.245
300.261
300.277
300.294
300.311
300.329
300.347
300.366
300.386
300.406
300.426
300.447
300.469
300.491
300.514
300.538
300.562
300.586
300.612
300.638
300.665
300.692
300.72
300.749
300.779
300.809
300.84
300.872
300.905
300.938
300.972
301.007
301.043
301.08
301.117
301.155
301.194
301.234
301.275
301.316
301.359
301.402
301.445
301.49
301.535
301.581
301.627
301.674
301.722
301.769
301.817
301.865
301.913
301.961
302.008
302.055
302.102
302.148
302.193
300.004
300.011
300.018
300.026
300.034
300.043
300.052
300.061
300.071
300.08
300.091
300.101
300.112
300.124
300.135
300.148
300.16
300.173
300.187
300.201
300.215
300.23
300.245
300.261
300.277
300.294
300.311
300.329
300.347
300.366
300.385
300.405
300.425
300.446
300.468
300.49
300.513
300.536
300.56
300.585
300.61
300.636
300.662
300.69
300.718
300.746
300.776
300.806
300.836
300.868
300.9
300.933
300.966
301.001
301.036
301.072
301.108
301.146
301.184
301.223
301.262
301.302
301.343
301.385
301.427
301.47
301.513
301.557
301.601
301.645
301.69
301.735
301.78
301.825
301.87
301.915
301.959
302.003
302.046
302.089
302.13
300.004
300.011
300.018
300.026
300.034
300.043
300.052
300.061
300.07
300.08
300.091
300.101
300.112
300.124
300.135
300.147
300.16
300.173
300.187
300.2
300.215
300.229
300.245
300.26
300.277
300.293
300.31
300.328
300.346
300.365
300.384
300.404
300.424
300.445
300.467
300.489
300.511
300.534
300.558
300.583
300.608
300.633
300.66
300.687
300.714
300.743
300.771
300.801
300.831
300.862
300.894
300.926
300.959
300.993
301.027
301.062
301.098
301.134
301.171
301.209
301.247
301.286
301.326
301.366
301.406
301.447
301.488
301.53
301.572
301.614
301.656
301.699
301.741
301.783
301.825
301.867
301.908
301.949
301.99
302.029
302.068
300.004
300.011
300.018
300.026
300.034
300.043
300.052
300.061
300.07
300.08
300.09
300.101
300.112
300.123
300.135
300.147
300.16
300.173
300.186
300.2
300.214
300.229
300.244
300.26
300.276
300.293
300.31
300.327
300.345
300.364
300.383
300.403
300.423
300.444
300.465
300.487
300.509
300.532
300.556
300.58
300.605
300.63
300.656
300.683
300.71
300.738
300.767
300.796
300.826
300.856
300.887
300.919
300.951
300.984
301.017
301.052
301.086
301.122
301.158
301.194
301.231
301.268
301.306
301.345
301.383
301.422
301.462
301.501
301.541
301.581
301.621
301.66
301.7
301.74
301.779
301.818
301.857
301.895
301.932
301.969
302.005
300.004
300.011
300.018
300.026
300.034
300.043
300.052
300.061
300.07
300.08
300.09
300.101
300.112
300.123
300.135
300.147
300.16
300.173
300.186
300.2
300.214
300.229
300.244
300.259
300.275
300.292
300.309
300.326
300.344
300.363
300.382
300.402
300.422
300.442
300.463
300.485
300.507
300.53
300.553
300.577
300.602
300.627
300.653
300.679
300.706
300.733
300.761
300.79
300.819
300.849
300.879
300.91
300.942
300.974
301.006
301.039
301.073
301.107
301.142
301.177
301.213
301.249
301.285
301.322
301.358
301.396
301.433
301.47
301.508
301.545
301.583
301.62
301.658
301.695
301.731
301.768
301.804
301.839
301.874
301.909
301.943
300.004
300.011
300.018
300.026
300.034
300.043
300.052
300.061
300.07
300.08
300.09
300.101
300.112
300.123
300.135
300.147
300.159
300.172
300.186
300.199
300.213
300.228
300.243
300.259
300.275
300.291
300.308
300.325
300.343
300.362
300.381
300.4
300.42
300.44
300.461
300.483
300.505
300.527
300.55
300.574
300.598
300.623
300.648
300.674
300.7
300.727
300.755
300.783
300.811
300.841
300.87
300.9
300.931
300.962
300.994
301.026
301.058
301.091
301.125
301.159
301.193
301.227
301.262
301.297
301.332
301.367
301.402
301.438
301.473
301.508
301.543
301.579
301.613
301.648
301.682
301.716
301.75
301.783
301.816
301.848
301.88
300.004
300.011
300.018
300.026
300.034
300.043
300.051
300.061
300.07
300.08
300.09
300.101
300.111
300.123
300.134
300.146
300.159
300.172
300.185
300.199
300.213
300.227
300.242
300.258
300.274
300.29
300.307
300.324
300.342
300.36
300.379
300.398
300.418
300.438
300.459
300.48
300.502
300.524
300.547
300.57
300.594
300.618
300.643
300.669
300.694
300.721
300.748
300.775
300.803
300.831
300.86
300.889
300.919
300.949
300.98
301.011
301.042
301.074
301.106
301.138
301.171
301.204
301.237
301.27
301.303
301.336
301.37
301.403
301.436
301.47
301.503
301.536
301.568
301.601
301.633
301.664
301.696
301.727
301.757
301.787
301.817
300.004
300.011
300.018
300.026
300.034
300.043
300.051
300.06
300.07
300.08
300.09
300.1
300.111
300.122
300.134
300.146
300.159
300.171
300.185
300.198
300.212
300.227
300.242
300.257
300.273
300.289
300.306
300.323
300.341
300.359
300.377
300.396
300.416
300.436
300.456
300.477
300.499
300.52
300.543
300.566
300.589
300.613
300.637
300.662
300.688
300.713
300.74
300.766
300.793
300.821
300.849
300.877
300.906
300.935
300.965
300.994
301.025
301.055
301.086
301.116
301.147
301.179
301.21
301.241
301.273
301.304
301.336
301.367
301.398
301.43
301.461
301.491
301.522
301.552
301.582
301.612
301.641
301.67
301.698
301.726
301.754
300.004
300.011
300.018
300.026
300.034
300.043
300.051
300.06
300.07
300.08
300.09
300.1
300.111
300.122
300.134
300.146
300.158
300.171
300.184
300.198
300.212
300.226
300.241
300.256
300.272
300.288
300.304
300.321
300.339
300.357
300.375
300.394
300.413
300.433
300.453
300.474
300.495
300.516
300.538
300.561
300.584
300.607
300.631
300.655
300.68
300.705
300.731
300.757
300.783
300.81
300.837
300.864
300.892
300.92
300.948
300.977
301.005
301.034
301.064
301.093
301.122
301.152
301.182
301.211
301.241
301.271
301.3
301.33
301.359
301.389
301.418
301.446
301.475
301.503
301.531
301.559
301.586
301.613
301.64
301.666
301.692
300.004
300.011
300.018
300.026
300.034
300.042
300.051
300.06
300.07
300.079
300.089
300.1
300.111
300.122
300.133
300.145
300.158
300.17
300.183
300.197
300.211
300.225
300.24
300.255
300.27
300.286
300.303
300.32
300.337
300.354
300.373
300.391
300.41
300.43
300.449
300.47
300.491
300.512
300.533
300.555
300.578
300.601
300.624
300.647
300.671
300.696
300.721
300.746
300.771
300.797
300.823
300.849
300.876
300.903
300.93
300.957
300.985
301.013
301.04
301.068
301.096
301.124
301.152
301.18
301.208
301.236
301.264
301.292
301.319
301.347
301.374
301.401
301.428
301.454
301.48
301.506
301.531
301.557
301.581
301.606
301.63
300.004
300.011
300.018
300.026
300.034
300.042
300.051
300.06
300.069
300.079
300.089
300.099
300.11
300.121
300.133
300.145
300.157
300.169
300.182
300.196
300.21
300.224
300.238
300.253
300.269
300.285
300.301
300.317
300.335
300.352
300.37
300.388
300.407
300.426
300.445
300.465
300.486
300.506
300.528
300.549
300.571
300.593
300.616
300.639
300.662
300.686
300.71
300.734
300.759
300.783
300.809
300.834
300.859
300.885
300.911
300.937
300.963
300.99
301.016
301.042
301.069
301.095
301.122
301.148
301.175
301.201
301.227
301.253
301.279
301.304
301.33
301.355
301.38
301.405
301.429
301.453
301.477
301.5
301.524
301.546
301.569
300.003
300.011
300.018
300.026
300.034
300.042
300.051
300.06
300.069
300.079
300.089
300.099
300.11
300.121
300.132
300.144
300.156
300.169
300.182
300.195
300.209
300.223
300.237
300.252
300.267
300.283
300.299
300.315
300.332
300.349
300.367
300.385
300.403
300.422
300.441
300.461
300.48
300.501
300.521
300.542
300.564
300.585
300.607
300.629
300.652
300.675
300.698
300.721
300.745
300.769
300.793
300.817
300.842
300.866
300.891
300.916
300.941
300.966
300.991
301.016
301.041
301.066
301.09
301.115
301.14
301.165
301.189
301.214
301.238
301.262
301.286
301.309
301.332
301.355
301.378
301.401
301.423
301.445
301.466
301.488
301.509
300.003
300.011
300.018
300.026
300.034
300.042
300.051
300.06
300.069
300.078
300.088
300.099
300.109
300.12
300.132
300.143
300.155
300.168
300.181
300.194
300.207
300.221
300.235
300.25
300.265
300.281
300.296
300.313
300.329
300.346
300.363
300.381
300.399
300.417
300.436
300.455
300.475
300.494
300.514
300.535
300.556
300.577
300.598
300.619
300.641
300.663
300.685
300.708
300.731
300.754
300.777
300.8
300.823
300.846
300.87
300.893
300.917
300.941
300.964
300.988
301.012
301.035
301.059
301.082
301.105
301.128
301.151
301.174
301.197
301.219
301.241
301.263
301.285
301.307
301.328
301.349
301.37
301.39
301.41
301.43
301.45
300.003
300.011
300.018
300.026
300.034
300.042
300.05
300.059
300.068
300.078
300.088
300.098
300.109
300.12
300.131
300.142
300.154
300.167
300.179
300.192
300.206
300.22
300.234
300.248
300.263
300.278
300.294
300.31
300.326
300.343
300.36
300.377
300.394
300.412
300.431
300.449
300.468
300.488
300.507
300.527
300.547
300.567
300.588
300.609
300.63
300.651
300.672
300.694
300.715
300.737
300.759
300.781
300.804
300.826
300.848
300.87
300.893
300.915
300.938
300.96
300.982
301.004
301.026
301.048
301.07
301.092
301.113
301.135
301.156
301.177
301.198
301.218
301.239
301.259
301.279
301.298
301.318
301.337
301.355
301.374
301.392
300.003
300.01
300.018
300.025
300.033
300.042
300.05
300.059
300.068
300.078
300.087
300.098
300.108
300.119
300.13
300.141
300.153
300.166
300.178
300.191
300.204
300.218
300.232
300.246
300.261
300.276
300.291
300.307
300.322
300.339
300.355
300.372
300.39
300.407
300.425
300.443
300.461
300.48
300.499
300.518
300.538
300.557
300.577
300.597
300.617
300.638
300.658
300.679
300.7
300.721
300.741
300.763
300.784
300.805
300.826
300.847
300.868
300.889
300.91
300.931
300.952
300.973
300.994
301.015
301.035
301.055
301.076
301.096
301.115
301.135
301.155
301.174
301.193
301.212
301.23
301.249
301.267
301.285
301.302
301.32
301.337
300.003
300.01
300.018
300.025
300.033
300.041
300.05
300.059
300.068
300.077
300.087
300.097
300.107
300.118
300.129
300.14
300.152
300.164
300.177
300.189
300.202
300.216
300.23
300.244
300.258
300.273
300.288
300.303
300.319
300.335
300.351
300.367
300.384
300.401
300.419
300.436
300.454
300.472
300.491
300.509
300.528
300.547
300.566
300.585
300.605
300.624
300.644
300.664
300.683
300.703
300.723
300.743
300.763
300.783
300.803
300.823
300.843
300.863
300.883
300.903
300.923
300.942
300.962
300.981
301.001
301.02
301.039
301.057
301.076
301.094
301.113
301.131
301.148
301.166
301.183
301.201
301.217
301.234
301.251
301.267
301.283
300.003
300.01
300.018
300.025
300.033
300.041
300.049
300.058
300.067
300.077
300.086
300.096
300.106
300.117
300.128
300.139
300.151
300.163
300.175
300.188
300.201
300.214
300.227
300.241
300.255
300.27
300.284
300.299
300.315
300.33
300.346
300.362
300.379
300.395
300.412
300.429
300.447
300.464
300.482
300.5
300.518
300.536
300.554
300.573
300.592
300.61
300.629
300.648
300.667
300.686
300.705
300.724
300.743
300.762
300.781
300.8
300.819
300.838
300.856
300.875
300.894
300.912
300.93
300.949
300.967
300.985
301.002
301.02
301.038
301.055
301.072
301.089
301.105
301.122
301.138
301.154
301.17
301.186
301.201
301.216
301.231
300.003
300.01
300.017
300.025
300.033
300.041
300.049
300.058
300.067
300.076
300.086
300.095
300.106
300.116
300.127
300.138
300.15
300.161
300.173
300.186
300.198
300.211
300.225
300.238
300.252
300.266
300.281
300.296
300.311
300.326
300.341
300.357
300.373
300.389
300.405
300.422
300.439
300.456
300.473
300.49
300.507
300.525
300.543
300.56
300.578
300.596
300.614
300.632
300.65
300.668
300.686
300.704
300.723
300.741
300.759
300.777
300.794
300.812
300.83
300.848
300.865
300.883
300.9
300.917
300.934
300.951
300.968
300.984
301.001
301.017
301.033
301.049
301.064
301.08
301.095
301.11
301.125
301.14
301.154
301.169
301.183
300.003
300.01
300.017
300.025
300.032
300.04
300.049
300.057
300.066
300.075
300.085
300.095
300.105
300.115
300.126
300.137
300.148
300.16
300.172
300.184
300.196
300.209
300.222
300.236
300.249
300.263
300.277
300.292
300.306
300.321
300.336
300.351
300.367
300.383
300.398
300.415
300.431
300.447
300.464
300.48
300.497
300.514
300.531
300.548
300.565
300.582
300.599
300.617
300.634
300.651
300.668
300.686
300.703
300.72
300.737
300.754
300.771
300.788
300.805
300.821
300.838
300.854
300.871
300.887
300.903
300.919
300.934
300.95
300.965
300.981
300.996
301.011
301.025
301.04
301.054
301.069
301.083
301.096
301.11
301.123
301.137
300.003
300.01
300.017
300.025
300.032
300.04
300.048
300.057
300.066
300.075
300.084
300.094
300.104
300.114
300.125
300.135
300.147
300.158
300.17
300.182
300.194
300.207
300.219
300.233
300.246
300.259
300.273
300.287
300.302
300.316
300.331
300.346
300.361
300.376
300.391
300.407
300.423
300.439
300.454
300.471
300.487
300.503
300.519
300.536
300.552
300.568
300.585
300.601
300.618
300.634
300.651
300.667
300.683
300.7
300.716
300.732
300.748
300.764
300.78
300.796
300.812
300.827
300.843
300.858
300.873
300.888
300.903
300.918
300.932
300.947
300.961
300.975
300.989
301.003
301.016
301.03
301.043
301.056
301.069
301.081
301.094
300.003
300.01
300.017
300.024
300.032
300.04
300.048
300.056
300.065
300.074
300.083
300.093
300.103
300.113
300.123
300.134
300.145
300.156
300.168
300.18
300.192
300.204
300.217
300.23
300.243
300.256
300.269
300.283
300.297
300.311
300.326
300.34
300.355
300.37
300.385
300.4
300.415
300.43
300.446
300.461
300.477
300.492
300.508
300.524
300.539
300.555
300.571
300.587
300.603
300.618
300.634
300.65
300.665
300.681
300.696
300.712
300.727
300.742
300.757
300.772
300.787
300.802
300.817
300.831
300.846
300.86
300.874
300.888
300.902
300.915
300.929
300.942
300.955
300.968
300.981
300.994
301.006
301.019
301.031
301.043
301.055
300.003
300.01
300.017
300.024
300.032
300.039
300.047
300.056
300.064
300.073
300.082
300.092
300.102
300.112
300.122
300.133
300.143
300.155
300.166
300.178
300.189
300.202
300.214
300.227
300.239
300.252
300.266
300.279
300.293
300.306
300.32
300.335
300.349
300.363
300.378
300.392
300.407
300.422
300.437
300.452
300.467
300.482
300.497
300.512
300.528
300.543
300.558
300.573
300.588
300.603
300.618
300.633
300.648
300.663
300.678
300.693
300.707
300.722
300.736
300.751
300.765
300.779
300.793
300.807
300.821
300.834
300.848
300.861
300.874
300.887
300.9
300.912
300.925
300.937
300.95
300.962
300.974
300.985
300.997
301.008
301.019
300.003
300.01
300.017
300.024
300.031
300.039
300.047
300.055
300.064
300.073
300.082
300.091
300.101
300.111
300.121
300.131
300.142
300.153
300.164
300.175
300.187
300.199
300.211
300.224
300.236
300.249
300.262
300.275
300.288
300.302
300.316
300.329
300.343
300.357
300.371
300.386
300.4
300.414
300.429
300.443
300.458
300.473
300.487
300.502
300.517
300.531
300.546
300.56
300.575
300.59
300.604
300.618
300.633
300.647
300.661
300.676
300.69
300.704
300.717
300.731
300.745
300.758
300.772
300.785
300.798
300.811
300.824
300.837
300.849
300.861
300.874
300.886
300.898
300.91
300.921
300.933
300.944
300.955
300.967
300.977
300.988
300.003
300.01
300.017
300.024
300.031
300.039
300.047
300.055
300.063
300.072
300.081
300.09
300.1
300.109
300.119
300.13
300.14
300.151
300.162
300.174
300.185
300.197
300.209
300.221
300.233
300.246
300.259
300.271
300.284
300.298
300.311
300.324
300.338
300.352
300.366
300.379
300.393
300.407
300.422
300.436
300.45
300.464
300.478
300.492
300.507
300.521
300.535
300.549
300.563
300.577
300.591
300.605
300.619
300.633
300.647
300.66
300.674
300.687
300.701
300.714
300.727
300.74
300.753
300.766
300.778
300.791
300.803
300.815
300.827
300.839
300.851
300.863
300.874
300.886
300.897
300.908
300.919
300.93
300.94
300.951
300.961
300.003
300.01
300.016
300.023
300.031
300.038
300.046
300.054
300.063
300.071
300.08
300.089
300.099
300.108
300.118
300.129
300.139
300.15
300.161
300.172
300.183
300.195
300.206
300.218
300.231
300.243
300.255
300.268
300.281
300.294
300.307
300.32
300.333
300.347
300.36
300.374
300.388
300.401
300.415
300.429
300.443
300.457
300.47
300.484
300.498
300.512
300.526
300.539
300.553
300.567
300.58
300.594
300.608
300.621
300.634
300.647
300.661
300.674
300.687
300.699
300.712
300.725
300.737
300.75
300.762
300.774
300.786
300.798
300.809
300.821
300.832
300.844
300.855
300.866
300.877
300.887
300.898
300.908
300.919
300.929
300.939
300.003
300.01
300.016
300.023
300.03
300.038
300.046
300.054
300.062
300.071
300.079
300.089
300.098
300.107
300.117
300.127
300.138
300.148
300.159
300.17
300.181
300.193
300.204
300.216
300.228
300.24
300.253
300.265
300.278
300.291
300.304
300.316
300.33
300.343
300.356
300.369
300.383
300.396
300.41
300.423
300.437
300.45
300.464
300.478
300.491
300.505
300.518
300.532
300.545
300.558
300.572
300.585
300.598
300.611
300.624
300.637
300.65
300.663
300.675
300.688
300.7
300.712
300.724
300.737
300.748
300.76
300.772
300.783
300.795
300.806
300.817
300.828
300.839
300.85
300.86
300.871
300.881
300.891
300.901
300.911
300.921
300.003
300.01
300.016
300.023
300.03
300.038
300.045
300.053
300.062
300.07
300.079
300.088
300.097
300.107
300.116
300.126
300.137
300.147
300.158
300.169
300.18
300.191
300.203
300.214
300.226
300.238
300.251
300.263
300.275
300.288
300.301
300.314
300.327
300.34
300.353
300.366
300.379
300.392
300.406
300.419
300.432
300.446
300.459
300.472
300.486
300.499
300.512
300.525
300.539
300.552
300.565
300.578
300.591
300.604
300.616
300.629
300.642
300.654
300.666
300.679
300.691
300.703
300.715
300.727
300.738
300.75
300.761
300.773
300.784
300.795
300.806
300.817
300.827
300.838
300.848
300.858
300.868
300.878
300.888
300.898
300.907
300.003
300.009
300.016
300.023
300.03
300.037
300.045
300.053
300.061
300.07
300.078
300.087
300.097
300.106
300.116
300.126
300.136
300.146
300.157
300.168
300.179
300.19
300.201
300.213
300.225
300.237
300.249
300.261
300.274
300.286
300.299
300.311
300.324
300.337
300.35
300.363
300.376
300.389
300.403
300.416
300.429
300.442
300.455
300.469
300.482
300.495
300.508
300.521
300.534
300.547
300.56
300.573
300.586
300.598
300.611
300.624
300.636
300.648
300.661
300.673
300.685
300.697
300.708
300.72
300.732
300.743
300.754
300.765
300.776
300.787
300.798
300.809
300.819
300.83
300.84
300.85
300.86
300.87
300.879
300.889
300.898
300.003
300.009
300.016
300.023
300.03
300.037
300.045
300.053
300.061
300.069
300.078
300.087
300.096
300.106
300.115
300.125
300.135
300.146
300.156
300.167
300.178
300.189
300.201
300.212
300.224
300.236
300.248
300.26
300.272
300.285
300.297
300.31
300.323
300.336
300.349
300.362
300.375
300.388
300.401
300.414
300.427
300.44
300.453
300.466
300.48
300.493
300.506
300.519
300.532
300.545
300.557
300.57
300.583
300.595
300.608
300.62
300.633
300.645
300.657
300.669
300.681
300.693
300.705
300.716
300.728
300.739
300.75
300.761
300.772
300.783
300.794
300.804
300.815
300.825
300.835
300.845
300.855
300.865
300.874
300.884
300.893
300.003
300.009
300.016
300.023
300.03
300.037
300.045
300.053
300.061
300.069
300.078
300.087
300.096
300.105
300.115
300.125
300.135
300.145
300.156
300.167
300.178
300.189
300.2
300.212
300.224
300.235
300.247
300.26
300.272
300.284
300.297
300.31
300.322
300.335
300.348
300.361
300.374
300.387
300.4
300.413
300.426
300.439
300.452
300.466
300.479
300.492
300.505
300.518
300.531
300.543
300.556
300.569
300.582
300.594
300.607
300.619
300.631
300.644
300.656
300.668
300.68
300.691
300.703
300.715
300.726
300.737
300.749
300.76
300.771
300.781
300.792
300.803
300.813
300.823
300.833
300.843
300.853
300.863
300.873
300.882
300.891
303.024
303.153
303.231
303.303
303.366
303.418
303.453
303.493
303.532
303.569
303.601
303.635
303.67
303.704
303.738
303.771
303.802
303.829
303.859
303.889
303.918
303.947
303.977
304.006
304.035
304.064
304.091
304.119
304.147
304.174
304.201
304.228
304.254
304.28
304.307
304.332
304.358
304.383
304.408
304.433
304.458
304.481
304.507
304.534
304.561
304.586
304.609
304.634
304.661
304.686
304.71
304.733
304.757
304.782
304.807
304.833
304.859
304.885
304.911
304.934
304.955
304.978
305.002
305.026
305.051
305.076
305.1
305.125
305.15
305.174
305.198
305.221
305.245
305.269
305.292
305.316
305.339
305.362
305.385
305.41
305.438
305.464
305.487
305.51
305.532
305.553
305.577
305.604
305.629
305.651
305.671
305.695
305.722
305.745
305.77
305.797
305.822
305.844
305.87
305.894
305.915
305.94
305.962
305.986
306.012
306.04
306.064
306.084
306.108
306.128
306.152
306.177
306.204
306.231
306.255
306.274
306.297
306.322
306.348
306.37
306.387
306.409
306.432
306.454
306.477
306.493
306.512
306.531
306.552
306.571
306.589
306.606
306.623
306.638
306.651
306.664
306.675
306.685
306.693
306.699
306.703
306.706
306.706
306.705
306.701
306.695
306.685
306.673
306.658
306.638
306.612
306.584
306.554
306.518
306.477
306.43
306.377
306.286
306.203
306.097
305.959
302.923
303.037
303.125
303.2
303.265
303.321
303.367
303.41
303.452
303.491
303.528
303.564
303.6
303.635
303.67
303.703
303.735
303.766
303.796
303.827
303.857
303.887
303.917
303.946
303.976
304.005
304.033
304.062
304.09
304.117
304.145
304.172
304.199
304.226
304.252
304.278
304.304
304.33
304.355
304.381
304.406
304.431
304.456
304.483
304.509
304.535
304.559
304.584
304.61
304.636
304.66
304.684
304.709
304.734
304.759
304.785
304.811
304.837
304.862
304.886
304.909
304.932
304.956
304.98
305.005
305.03
305.055
305.079
305.104
305.128
305.153
305.177
305.201
305.224
305.248
305.272
305.296
305.319
305.343
305.368
305.395
305.42
305.444
305.468
305.49
305.512
305.536
305.563
305.587
305.61
305.632
305.656
305.682
305.706
305.731
305.757
305.782
305.806
305.831
305.855
305.878
305.902
305.925
305.949
305.975
306.002
306.026
306.048
306.071
306.093
306.117
306.142
306.169
306.195
306.219
306.24
306.263
306.288
306.313
306.336
306.355
306.377
306.4
306.422
306.444
306.461
306.481
306.501
306.521
306.54
306.559
306.576
306.593
306.608
306.622
306.635
306.646
306.656
306.664
306.67
306.675
306.678
306.679
306.677
306.673
306.667
306.658
306.646
306.63
306.61
306.585
306.556
306.525
306.489
306.447
306.397
306.341
306.253
306.165
306.054
305.903
302.841
302.94
303.026
303.101
303.168
303.226
303.277
303.325
303.369
303.411
303.451
303.489
303.526
303.562
303.598
303.632
303.666
303.698
303.729
303.761
303.792
303.823
303.853
303.883
303.913
303.943
303.972
304.001
304.029
304.057
304.085
304.113
304.14
304.167
304.194
304.22
304.247
304.273
304.299
304.325
304.35
304.376
304.402
304.428
304.455