/*--------------------------------*- C++ -*----------------------------------*\
| =========                 |                                                 |
| \\      /  F ield         | OpenFOAM: The Open Source CFD Toolbox           |
|  \\    /   O peration     | Version:  2106                                  |
|   \\  /    A nd           | Website:  www.openfoam.com                      |
|    \\/     M anipulation  |                                                 |
\*---------------------------------------------------------------------------*/
FoamFile
{
    version     2.0;
    format      ascii;
    arch        "LSB;label=32;scalar=64";
    class       volVectorField;
    location    "8.2";
    object      U;
}
// * * * * * * * * * * * * * * * * * * * * * * * * * * * * * * * * * * * * * //

dimensions      [0 1 -1 0 0 0 0];

internalField   nonuniform List<vector> 
12013
(
(0.100039 -1.08334e-05 0)
(0.100198 -2.00499e-05 0)
(0.100456 -2.8616e-05 0)
(0.100789 -3.65321e-05 0)
(0.101192 -4.39833e-05 0)
(0.101658 -5.10739e-05 0)
(0.102181 -5.78698e-05 0)
(0.102755 -6.44238e-05 0)
(0.103378 -7.07758e-05 0)
(0.104044 -7.69574e-05 0)
(0.104751 -8.29928e-05 0)
(0.105495 -8.89022e-05 0)
(0.106274 -9.47018e-05 0)
(0.107086 -0.000100405 0)
(0.107927 -0.000106022 0)
(0.108797 -0.000111561 0)
(0.109692 -0.000117029 0)
(0.110611 -0.000122432 0)
(0.111552 -0.000127772 0)
(0.112514 -0.000133054 0)
(0.113494 -0.000138278 0)
(0.114492 -0.000143445 0)
(0.115506 -0.000148555 0)
(0.116535 -0.000153607 0)
(0.117576 -0.000158599 0)
(0.11863 -0.000163529 0)
(0.119694 -0.000168394 0)
(0.120767 -0.00017319 0)
(0.121848 -0.000177913 0)
(0.122937 -0.000182557 0)
(0.124031 -0.000187117 0)
(0.12513 -0.000191587 0)
(0.126233 -0.000195959 0)
(0.127338 -0.000200225 0)
(0.128444 -0.000204377 0)
(0.12955 -0.000208405 0)
(0.130656 -0.000212297 0)
(0.131759 -0.000216043 0)
(0.13286 -0.000219628 0)
(0.133956 -0.000223039 0)
(0.135048 -0.00022626 0)
(0.136132 -0.000229272 0)
(0.13721 -0.000232056 0)
(0.138278 -0.000234589 0)
(0.139336 -0.000236846 0)
(0.140384 -0.000238801 0)
(0.141419 -0.00024042 0)
(0.14244 -0.000241668 0)
(0.143446 -0.000242506 0)
(0.144435 -0.000242885 0)
(0.145406 -0.000242754 0)
(0.146356 -0.000242051 0)
(0.147286 -0.000240706 0)
(0.148191 -0.000238635 0)
(0.14907 -0.000235742 0)
(0.149921 -0.000231914 0)
(0.150741 -0.000227016 0)
(0.151528 -0.000220886 0)
(0.152277 -0.000213332 0)
(0.152985 -0.000204117 0)
(0.153648 -0.000192956 0)
(0.15426 -0.000179493 0)
(0.154817 -0.000163286 0)
(0.15531 -0.000143777 0)
(0.155732 -0.000120252 0)
(0.156073 -9.17877e-05 0)
(0.15632 -5.71712e-05 0)
(0.156459 -1.47826e-05 0)
(0.156469 3.75955e-05 0)
(0.156326 0.000103111 0)
(0.155999 0.00018627 0)
(0.155443 0.000293698 0)
(0.154598 0.00043546 0)
(0.153379 0.000627339 0)
(0.151665 0.000894961 0)
(0.149269 0.00128142 0)
(0.145905 0.0018619 0)
(0.141095 0.00277572 0)
(0.13404 0.00432443 0)
(0.123633 0.00739687 0)
(0.111681 0.0161834 0)
(0.100036 -3.30766e-05 0)
(0.100194 -6.14717e-05 0)
(0.100451 -8.77798e-05 0)
(0.100784 -0.000112074 0)
(0.101186 -0.000134943 0)
(0.10165 -0.000156702 0)
(0.102172 -0.000177554 0)
(0.102746 -0.000197663 0)
(0.103367 -0.000217152 0)
(0.104032 -0.000236115 0)
(0.104738 -0.000254629 0)
(0.105481 -0.000272756 0)
(0.10626 -0.000290544 0)
(0.10707 -0.000308035 0)
(0.10791 -0.000325261 0)
(0.108778 -0.000342247 0)
(0.109672 -0.000359016 0)
(0.11059 -0.000375581 0)
(0.11153 -0.000391956 0)
(0.11249 -0.000408149 0)
(0.113469 -0.000424163 0)
(0.114466 -0.000440003 0)
(0.115478 -0.000455667 0)
(0.116505 -0.000471152 0)
(0.117545 -0.000486452 0)
(0.118596 -0.000501562 0)
(0.119659 -0.000516471 0)
(0.12073 -0.000531167 0)
(0.12181 -0.000545638 0)
(0.122897 -0.000559867 0)
(0.123989 -0.000573838 0)
(0.125086 -0.00058753 0)
(0.126187 -0.000600922 0)
(0.127289 -0.000613988 0)
(0.128394 -0.000626703 0)
(0.129498 -0.000639036 0)
(0.130601 -0.000650955 0)
(0.131703 -0.000662422 0)
(0.132801 -0.000673398 0)
(0.133895 -0.000683838 0)
(0.134984 -0.000693694 0)
(0.136066 -0.00070291 0)
(0.137141 -0.000711426 0)
(0.138206 -0.000719174 0)
(0.139262 -0.000726077 0)
(0.140307 -0.00073205 0)
(0.141339 -0.000736996 0)
(0.142358 -0.000740808 0)
(0.143361 -0.00074336 0)
(0.144347 -0.000744512 0)
(0.145316 -0.0007441 0)
(0.146264 -0.00074194 0)
(0.14719 -0.000737814 0)
(0.148093 -0.00073147 0)
(0.14897 -0.000722616 0)
(0.149819 -0.000710905 0)
(0.150637 -0.000695928 0)
(0.151421 -0.000677194 0)
(0.152168 -0.000654116 0)
(0.152875 -0.000625983 0)
(0.153538 -0.000591925 0)
(0.15415 -0.00055087 0)
(0.154708 -0.000501484 0)
(0.155203 -0.000442084 0)
(0.155629 -0.00037053 0)
(0.155976 -0.000284057 0)
(0.156232 -0.000179046 0)
(0.156384 -5.06895e-05 0)
(0.156413 0.000107528 0)
(0.156298 0.000304709 0)
(0.15601 0.000553773 0)
(0.155513 0.000873461 0)
(0.154757 0.00129169 0)
(0.153678 0.00185117 0)
(0.152185 0.00261904 0)
(0.15016 0.00370333 0)
(0.147438 0.00528068 0)
(0.143794 0.00764267 0)
(0.138955 0.0112746 0)
(0.132934 0.0168956 0)
(0.128046 0.0249038 0)
(0.100033 -5.62186e-05 0)
(0.100189 -0.00010544 0)
(0.100444 -0.000150752 0)
(0.100774 -0.000192581 0)
(0.101174 -0.000231947 0)
(0.101637 -0.000269397 0)
(0.102156 -0.000305282 0)
(0.102728 -0.000339882 0)
(0.103347 -0.000373413 0)
(0.10401 -0.000406036 0)
(0.104714 -0.000437885 0)
(0.105455 -0.000469065 0)
(0.106231 -0.000499662 0)
(0.107039 -0.000529744 0)
(0.107877 -0.000559369 0)
(0.108742 -0.00058858 0)
(0.109633 -0.000617414 0)
(0.110548 -0.000645897 0)
(0.111485 -0.000674051 0)
(0.112443 -0.000701889 0)
(0.113419 -0.000729419 0)
(0.114412 -0.000756646 0)
(0.115422 -0.000783568 0)
(0.116445 -0.000810181 0)
(0.117482 -0.000836475 0)
(0.11853 -0.000862438 0)
(0.119589 -0.000888053 0)
(0.120657 -0.000913301 0)
(0.121733 -0.000938158 0)
(0.122816 -0.000962599 0)
(0.123904 -0.000986591 0)
(0.124997 -0.0010101 0)
(0.126094 -0.00103309 0)
(0.127192 -0.00105552 0)
(0.128292 -0.00107735 0)
(0.129392 -0.00109851 0)
(0.130491 -0.00111896 0)
(0.131588 -0.00113863 0)
(0.132681 -0.00115745 0)
(0.13377 -0.00117535 0)
(0.134854 -0.00119224 0)
(0.135932 -0.00120803 0)
(0.137001 -0.00122261 0)
(0.138062 -0.00123588 0)
(0.139113 -0.00124768 0)
(0.140152 -0.00125789 0)
(0.141179 -0.00126634 0)
(0.142192 -0.00127283 0)
(0.143189 -0.00127717 0)
(0.14417 -0.0012791 0)
(0.145133 -0.00127835 0)
(0.146076 -0.00127461 0)
(0.146997 -0.0012675 0)
(0.147894 -0.0012566 0)
(0.148766 -0.00124141 0)
(0.14961 -0.00122135 0)
(0.150423 -0.00119573 0)
(0.151203 -0.00116371 0)
(0.151947 -0.00112432 0)
(0.152652 -0.00107636 0)
(0.153312 -0.00101838 0)
(0.153924 -0.000948606 0)
(0.154482 -0.000864815 0)
(0.154981 -0.000764247 0)
(0.155413 -0.000643397 0)
(0.15577 -0.000497775 0)
(0.156042 -0.000321558 0)
(0.156216 -0.000107088 0)
(0.156277 0.000155838 0)
(0.156209 0.000481166 0)
(0.155989 0.000888273 0)
(0.155591 0.00140449 0)
(0.154982 0.00206904 0)
(0.154123 0.00293921 0)
(0.152971 0.00409978 0)
(0.15148 0.00567697 0)
(0.149617 0.00785696 0)
(0.147389 0.010905 0)
(0.144908 0.0151698 0)
(0.142605 0.0209563 0)
(0.14176 0.0277471 0)
(0.10003 -8.00593e-05 0)
(0.100184 -0.000151832 0)
(0.100434 -0.000217458 0)
(0.100762 -0.000278075 0)
(0.101158 -0.000335099 0)
(0.101618 -0.000389327 0)
(0.102134 -0.000441281 0)
(0.102703 -0.000491368 0)
(0.103318 -0.000539898 0)
(0.103978 -0.00058711 0)
(0.104678 -0.000633195 0)
(0.105416 -0.000678308 0)
(0.106188 -0.000722571 0)
(0.106992 -0.000766087 0)
(0.107826 -0.000808935 0)
(0.108688 -0.000851182 0)
(0.109575 -0.000892879 0)
(0.110486 -0.000934065 0)
(0.111418 -0.000974769 0)
(0.112371 -0.00101501 0)
(0.113343 -0.00105481 0)
(0.114332 -0.00109416 0)
(0.115336 -0.00113306 0)
(0.116355 -0.00117152 0)
(0.117386 -0.0012095 0)
(0.118429 -0.00124701 0)
(0.119483 -0.001284 0)
(0.120545 -0.00132046 0)
(0.121616 -0.00135635 0)
(0.122693 -0.00139164 0)
(0.123775 -0.00142626 0)
(0.124862 -0.00146019 0)
(0.125952 -0.00149336 0)
(0.127045 -0.00152571 0)
(0.128138 -0.00155718 0)
(0.129231 -0.00158769 0)
(0.130323 -0.00161716 0)
(0.131413 -0.00164549 0)
(0.132499 -0.0016726 0)
(0.133581 -0.00169837 0)
(0.134658 -0.00172267 0)
(0.135727 -0.00174537 0)
(0.136789 -0.00176633 0)
(0.137842 -0.00178537 0)
(0.138885 -0.00180232 0)
(0.139916 -0.00181694 0)
(0.140935 -0.00182902 0)
(0.14194 -0.00183829 0)
(0.142929 -0.00184444 0)
(0.143902 -0.00184712 0)
(0.144857 -0.00184596 0)
(0.145791 -0.00184048 0)
(0.146704 -0.00183018 0)
(0.147594 -0.00181444 0)
(0.148459 -0.00179257 0)
(0.149295 -0.00176374 0)
(0.150102 -0.00172697 0)
(0.150877 -0.00168112 0)
(0.151616 -0.0016248 0)
(0.152316 -0.00155637 0)
(0.152974 -0.00147381 0)
(0.153586 -0.00137469 0)
(0.154146 -0.00125598 0)
(0.154651 -0.00111394 0)
(0.155092 -0.00094387 0)
(0.155465 -0.000739827 0)
(0.15576 -0.000494187 0)
(0.155967 -0.000197092 0)
(0.156077 0.000164303 0)
(0.156076 0.000607017 0)
(0.155952 0.00115402 0)
(0.155688 0.00183645 0)
(0.155271 0.00269688 0)
(0.154689 0.00379374 0)
(0.153937 0.005207 0)
(0.153028 0.00704439 0)
(0.152012 0.00944477 0)
(0.151002 0.0125695 0)
(0.150219 0.0165578 0)
(0.150054 0.0213741 0)
(0.151067 0.0263687 0)
(0.100027 -0.000104605 0)
(0.100177 -0.000200558 0)
(0.100424 -0.000287855 0)
(0.100747 -0.000368579 0)
(0.101139 -0.000444489 0)
(0.101594 -0.000516652 0)
(0.102106 -0.000585771 0)
(0.10267 -0.000652393 0)
(0.103281 -0.000716931 0)
(0.103936 -0.000779706 0)
(0.104632 -0.000840974 0)
(0.105364 -0.000900939 0)
(0.106131 -0.000959768 0)
(0.10693 -0.00101759 0)
(0.107759 -0.00107453 0)
(0.108615 -0.00113065 0)
(0.109497 -0.00118604 0)
(0.110402 -0.00124073 0)
(0.111329 -0.00129479 0)
(0.112275 -0.00134822 0)
(0.113241 -0.00140104 0)
(0.114223 -0.00145327 0)
(0.115221 -0.0015049 0)
(0.116233 -0.00155592 0)
(0.117258 -0.00160632 0)
(0.118294 -0.00165606 0)
(0.11934 -0.00170512 0)
(0.120395 -0.00175346 0)
(0.121457 -0.00180103 0)
(0.122526 -0.00184778 0)
(0.123601 -0.00189365 0)
(0.12468 -0.00193859 0)
(0.125761 -0.00198251 0)
(0.126845 -0.00202533 0)
(0.127929 -0.00206696 0)
(0.129013 -0.00210732 0)
(0.130096 -0.00214628 0)
(0.131177 -0.00218372 0)
(0.132253 -0.00221953 0)
(0.133326 -0.00225354 0)
(0.134392 -0.00228561 0)
(0.135452 -0.00231554 0)
(0.136504 -0.00234315 0)
(0.137546 -0.00236821 0)
(0.138578 -0.00239048 0)
(0.139599 -0.00240968 0)
(0.140607 -0.0024255 0)
(0.141602 -0.00243759 0)
(0.14258 -0.00244556 0)
(0.143542 -0.00244896 0)
(0.144486 -0.00244728 0)
(0.145411 -0.00243992 0)
(0.146314 -0.00242623 0)
(0.147194 -0.00240541 0)
(0.148049 -0.00237656 0)
(0.148877 -0.00233863 0)
(0.149675 -0.00229038 0)
(0.150443 -0.00223034 0)
(0.151176 -0.00215677 0)
(0.151872 -0.00206761 0)
(0.152528 -0.00196035 0)
(0.153141 -0.00183197 0)
(0.153705 -0.00167879 0)
(0.154218 -0.00149627 0)
(0.154675 -0.00127881 0)
(0.155069 -0.00101941 0)
(0.155396 -0.000709256 0)
(0.155648 -0.000337215 0)
(0.15582 0.000110873 0)
(0.155905 0.000652944 0)
(0.155898 0.00131238 0)
(0.155795 0.00211938 0)
(0.155596 0.00311284 0)
(0.15531 0.00434231 0)
(0.15496 0.00586953 0)
(0.154589 0.00776811 0)
(0.154276 0.0101177 0)
(0.154152 0.0129854 0)
(0.15441 0.0163803 0)
(0.155301 0.0201559 0)
(0.157051 0.0238388 0)
(0.100024 -0.000129865 0)
(0.100171 -0.000251535 0)
(0.100412 -0.000361891 0)
(0.10073 -0.000464081 0)
(0.101116 -0.000560166 0)
(0.101566 -0.000651479 0)
(0.102072 -0.00073892 0)
(0.10263 -0.00082318 0)
(0.103236 -0.000904786 0)
(0.103885 -0.000984148 0)
(0.104574 -0.00106159 0)
(0.1053 -0.00113737 0)
(0.106061 -0.0012117 0)
(0.106853 -0.00128475 0)
(0.107675 -0.00135665 0)
(0.108524 -0.00142753 0)
(0.109399 -0.00149746 0)
(0.110296 -0.0015665 0)
(0.111216 -0.00163472 0)
(0.112155 -0.00170214 0)
(0.113112 -0.00176879 0)
(0.114086 -0.00183467 0)
(0.115076 -0.00189978 0)
(0.116079 -0.00196411 0)
(0.117095 -0.00202763 0)
(0.118122 -0.00209031 0)
(0.119159 -0.00215212 0)
(0.120204 -0.002213 0)
(0.121257 -0.0022729 0)
(0.122316 -0.00233175 0)
(0.12338 -0.00238948 0)
(0.124449 -0.00244601 0)
(0.12552 -0.00250123 0)
(0.126592 -0.00255506 0)
(0.127666 -0.00260737 0)
(0.128739 -0.00265805 0)
(0.12981 -0.00270696 0)
(0.130878 -0.00275394 0)
(0.131943 -0.00279883 0)
(0.133003 -0.00284145 0)
(0.134057 -0.0028816 0)
(0.135105 -0.00291905 0)
(0.136144 -0.00295355 0)
(0.137173 -0.00298484 0)
(0.138193 -0.0030126 0)
(0.139201 -0.0030365 0)
(0.140196 -0.00305614 0)
(0.141177 -0.0030711 0)
(0.142143 -0.00308089 0)
(0.143092 -0.00308496 0)
(0.144023 -0.00308268 0)
(0.144935 -0.00307334 0)
(0.145826 -0.0030561 0)
(0.146694 -0.00303004 0)
(0.147538 -0.00299405 0)
(0.148356 -0.00294686 0)
(0.149145 -0.00288701 0)
(0.149905 -0.00281274 0)
(0.150632 -0.00272202 0)
(0.151325 -0.00261241 0)
(0.15198 -0.00248104 0)
(0.152594 -0.00232444 0)
(0.153166 -0.00213844 0)
(0.153691 -0.001918 0)
(0.154167 -0.00165698 0)
(0.154589 -0.00134785 0)
(0.154956 -0.000981375 0)
(0.155263 -0.000546182 0)
(0.15551 -2.8249e-05 0)
(0.155693 0.000589387 0)
(0.155816 0.00132764 0)
(0.155883 0.00221219 0)
(0.155906 0.00327378 0)
(0.155906 0.00454827 0)
(0.155915 0.00607544 0)
(0.155987 0.00789546 0)
(0.156199 0.0100409 0)
(0.156657 0.0125205 0)
(0.157494 0.0152907 0)
(0.158848 0.0182092 0)
(0.160796 0.0209832 0)
(0.100021 -0.000155852 0)
(0.100165 -0.000304699 0)
(0.1004 -0.000439515 0)
(0.100711 -0.000564551 0)
(0.101091 -0.000682147 0)
(0.101534 -0.000793877 0)
(0.102034 -0.000900845 0)
(0.102585 -0.0010039 0)
(0.103183 -0.00110368 0)
(0.103825 -0.0012007 0)
(0.104506 -0.00129534 0)
(0.105225 -0.00138794 0)
(0.105978 -0.00147874 0)
(0.106762 -0.00156796 0)
(0.107575 -0.00165577 0)
(0.108416 -0.00174229 0)
(0.109282 -0.00182764 0)
(0.11017 -0.0019119 0)
(0.11108 -0.00199513 0)
(0.11201 -0.00207736 0)
(0.112957 -0.00215863 0)
(0.113922 -0.00223895 0)
(0.114901 -0.0023183 0)
(0.115893 -0.00239668 0)
(0.116898 -0.00247406 0)
(0.117914 -0.0025504 0)
(0.11894 -0.00262564 0)
(0.119974 -0.00269973 0)
(0.121015 -0.00277261 0)
(0.122062 -0.00284418 0)
(0.123114 -0.00291436 0)
(0.124169 -0.00298304 0)
(0.125227 -0.00305013 0)
(0.126287 -0.00311548 0)
(0.127347 -0.00317896 0)
(0.128406 -0.00324042 0)
(0.129463 -0.0032997 0)
(0.130518 -0.00335662 0)
(0.131568 -0.00341096 0)
(0.132614 -0.00346252 0)
(0.133653 -0.00351104 0)
(0.134686 -0.00355627 0)
(0.13571 -0.00359789 0)
(0.136724 -0.00363559 0)
(0.137728 -0.003669 0)
(0.138721 -0.0036977 0)
(0.139701 -0.00372124 0)
(0.140666 -0.00373911 0)
(0.141617 -0.00375072 0)
(0.142551 -0.00375544 0)
(0.143468 -0.00375253 0)
(0.144366 -0.00374114 0)
(0.145243 -0.00372032 0)
(0.146098 -0.00368898 0)
(0.146929 -0.00364586 0)
(0.147736 -0.00358951 0)
(0.148516 -0.00351825 0)
(0.149268 -0.00343013 0)
(0.149989 -0.00332286 0)
(0.150678 -0.00319378 0)
(0.151334 -0.00303974 0)
(0.151953 -0.00285701 0)
(0.152534 -0.0026412 0)
(0.153075 -0.00238705 0)
(0.153574 -0.00208833 0)
(0.154031 -0.00173757 0)
(0.154444 -0.00132588 0)
(0.154813 -0.000842621 0)
(0.15514 -0.000275231 0)
(0.155428 0.000390983 0)
(0.155683 0.00117252 0)
(0.155917 0.00208857 0)
(0.156147 0.00316024 0)
(0.156396 0.00440938 0)
(0.1567 0.00585645 0)
(0.157107 0.00751655 0)
(0.157678 0.00939292 0)
(0.158486 0.0114668 0)
(0.159611 0.0136833 0)
(0.161119 0.0159347 0)
(0.163028 0.0180511 0)
(0.100017 -0.000182593 0)
(0.100158 -0.000360004 0)
(0.100387 -0.000520683 0)
(0.100692 -0.000669954 0)
(0.101065 -0.000810421 0)
(0.1015 -0.000943875 0)
(0.101991 -0.00107162 0)
(0.102534 -0.00119467 0)
(0.103124 -0.00131378 0)
(0.103757 -0.00142956 0)
(0.104429 -0.00154249 0)
(0.105139 -0.00165293 0)
(0.105882 -0.00176122 0)
(0.106657 -0.00186759 0)
(0.10746 -0.00197224 0)
(0.10829 -0.00207535 0)
(0.109145 -0.00217702 0)
(0.110023 -0.00227737 0)
(0.110922 -0.00237647 0)
(0.111841 -0.00247436 0)
(0.112777 -0.00257107 0)
(0.113729 -0.00266661 0)
(0.114696 -0.00276099 0)
(0.115676 -0.00285417 0)
(0.116668 -0.00294613 0)
(0.117671 -0.00303683 0)
(0.118683 -0.00312619 0)
(0.119703 -0.00321416 0)
(0.12073 -0.00330064 0)
(0.121763 -0.00338554 0)
(0.122801 -0.00346876 0)
(0.123841 -0.00355016 0)
(0.124884 -0.00362963 0)
(0.125929 -0.003707 0)
(0.126973 -0.00378213 0)
(0.128016 -0.00385481 0)
(0.129057 -0.00392488 0)
(0.130095 -0.00399209 0)
(0.131129 -0.00405623 0)
(0.132158 -0.00411703 0)
(0.13318 -0.0041742 0)
(0.134196 -0.00422743 0)
(0.135202 -0.00427638 0)
(0.136199 -0.00432066 0)
(0.137186 -0.00435983 0)
(0.138161 -0.00439344 0)
(0.139124 -0.00442096 0)
(0.140072 -0.00444179 0)
(0.141006 -0.00445527 0)
(0.141923 -0.00446067 0)
(0.142824 -0.00445716 0)
(0.143705 -0.00444378 0)
(0.144567 -0.00441947 0)
(0.145408 -0.00438301 0)
(0.146227 -0.00433301 0)
(0.147022 -0.00426789 0)
(0.147792 -0.00418583 0)
(0.148536 -0.00408472 0)
(0.149252 -0.00396216 0)
(0.149939 -0.00381532 0)
(0.150595 -0.00364098 0)
(0.151221 -0.00343536 0)
(0.151814 -0.00319408 0)
(0.152374 -0.00291203 0)
(0.152901 -0.0025833 0)
(0.153395 -0.00220103 0)
(0.153858 -0.0017573 0)
(0.154291 -0.00124306 0)
(0.1547 -0.000648041 0)
(0.155091 3.92523e-05 0)
(0.155472 0.000830573 0)
(0.155857 0.00173809 0)
(0.156264 0.00277391 0)
(0.156716 0.00394838 0)
(0.157244 0.00526801 0)
(0.157885 0.00673244 0)
(0.158682 0.00833038 0)
(0.15968 0.0100346 0)
(0.160921 0.0117965 0)
(0.162433 0.0135423 0)
(0.164211 0.0151757 0)
(0.100014 -0.000210125 0)
(0.100152 -0.000417424 0)
(0.100375 -0.000605362 0)
(0.100672 -0.000780251 0)
(0.101036 -0.000944966 0)
(0.101463 -0.00110148 0)
(0.101945 -0.00125129 0)
(0.102479 -0.00139556 0)
(0.103059 -0.00153519 0)
(0.103681 -0.00167088 0)
(0.104344 -0.00180319 0)
(0.105042 -0.00193256 0)
(0.105775 -0.00205936 0)
(0.106538 -0.00218389 0)
(0.10733 -0.00230637 0)
(0.108148 -0.002427 0)
(0.108991 -0.00254593 0)
(0.109857 -0.00266327 0)
(0.110743 -0.0027791 0)
(0.111648 -0.00289349 0)
(0.11257 -0.00300646 0)
(0.113509 -0.00311804 0)
(0.114462 -0.00322821 0)
(0.115427 -0.00333696 0)
(0.116405 -0.00344423 0)
(0.117393 -0.00354999 0)
(0.118389 -0.00365415 0)
(0.119394 -0.00375664 0)
(0.120405 -0.00385736 0)
(0.121421 -0.00395619 0)
(0.122442 -0.00405301 0)
(0.123466 -0.00414767 0)
(0.124491 -0.00424003 0)
(0.125518 -0.0043299 0)
(0.126544 -0.00441711 0)
(0.12757 -0.00450143 0)
(0.128592 -0.00458266 0)
(0.129612 -0.00466053 0)
(0.130627 -0.00473477 0)
(0.131637 -0.00480509 0)
(0.13264 -0.00487115 0)
(0.133636 -0.00493261 0)
(0.134623 -0.00498906 0)
(0.135601 -0.00504007 0)
(0.136568 -0.00508516 0)
(0.137524 -0.00512379 0)
(0.138467 -0.00515537 0)
(0.139396 -0.00517925 0)
(0.140311 -0.0051947 0)
(0.14121 -0.0052009 0)
(0.142093 -0.00519693 0)
(0.142957 -0.00518176 0)
(0.143803 -0.00515424 0)
(0.144629 -0.00511306 0)
(0.145434 -0.00505675 0)
(0.146217 -0.00498363 0)
(0.146977 -0.00489182 0)
(0.147713 -0.00477916 0)
(0.148424 -0.00464319 0)
(0.14911 -0.00448113 0)
(0.14977 -0.0042898 0)
(0.150403 -0.0040656 0)
(0.15101 -0.0038044 0)
(0.151591 -0.00350158 0)
(0.152148 -0.0031519 0)
(0.152681 -0.00274953 0)
(0.153194 -0.00228799 0)
(0.15369 -0.00176027 0)
(0.154177 -0.00115885 0)
(0.154661 -0.000475868 0)
(0.155153 0.000296673 0)
(0.155665 0.00116438 0)
(0.156215 0.00213223 0)
(0.156821 0.00320256 0)
(0.157507 0.00437338 0)
(0.158299 0.00563663 0)
(0.159223 0.00697611 0)
(0.160307 0.00836565 0)
(0.161568 0.00976777 0)
(0.163016 0.0111343 0)
(0.164641 0.0124108 0)
(0.100011 -0.00023849 0)
(0.100146 -0.000476943 0)
(0.100362 -0.000693526 0)
(0.100651 -0.000895405 0)
(0.101007 -0.00108574 0)
(0.101424 -0.00126667 0)
(0.101896 -0.00143984 0)
(0.102419 -0.0016066 0)
(0.102988 -0.00176797 0)
(0.1036 -0.00192474 0)
(0.10425 -0.00207757 0)
(0.104937 -0.00222696 0)
(0.105657 -0.00237333 0)
(0.106407 -0.00251704 0)
(0.107186 -0.00265834 0)
(0.107991 -0.00279747 0)
(0.10882 -0.00293458 0)
(0.109671 -0.00306982 0)
(0.110542 -0.00320327 0)
(0.111432 -0.00333502 0)
(0.11234 -0.00346509 0)
(0.113262 -0.0035935 0)
(0.114199 -0.00372024 0)
(0.115149 -0.00384529 0)
(0.116109 -0.00396861 0)
(0.11708 -0.00409012 0)
(0.118059 -0.00420975 0)
(0.119046 -0.0043274 0)
(0.120039 -0.00444295 0)
(0.121037 -0.00455629 0)
(0.122038 -0.00466726 0)
(0.123043 -0.00477569 0)
(0.124049 -0.00488143 0)
(0.125056 -0.00498425 0)
(0.126063 -0.00508396 0)
(0.127068 -0.00518031 0)
(0.12807 -0.00527305 0)
(0.129069 -0.00536189 0)
(0.130063 -0.00544652 0)
(0.131051 -0.00552662 0)
(0.132033 -0.00560181 0)
(0.133008 -0.00567169 0)
(0.133973 -0.00573583 0)
(0.13493 -0.00579373 0)
(0.135876 -0.00584487 0)
(0.13681 -0.00588866 0)
(0.137732 -0.00592445 0)
(0.138641 -0.00595154 0)
(0.139536 -0.00596913 0)
(0.140415 -0.00597634 0)
(0.141279 -0.00597221 0)
(0.142125 -0.00595563 0)
(0.142954 -0.00592542 0)
(0.143764 -0.0058802 0)
(0.144555 -0.00581848 0)
(0.145326 -0.00573856 0)
(0.146076 -0.00563856 0)
(0.146804 -0.00551634 0)
(0.147511 -0.00536956 0)
(0.148197 -0.00519557 0)
(0.14886 -0.00499142 0)
(0.149503 -0.00475384 0)
(0.150124 -0.00447924 0)
(0.150727 -0.00416367 0)
(0.151313 -0.00380284 0)
(0.151884 -0.00339219 0)
(0.152444 -0.00292692 0)
(0.152999 -0.00240215 0)
(0.153554 -0.0018131 0)
(0.154118 -0.0011553 0)
(0.1547 -0.000424866 0)
(0.155313 0.000381436 0)
(0.155969 0.00126227 0)
(0.156682 0.00221502 0)
(0.15747 0.00323362 0)
(0.158349 0.00430742 0)
(0.159334 0.00542048 0)
(0.160438 0.0065512 0)
(0.161669 0.00767266 0)
(0.163028 0.00875411 0)
(0.164502 0.00976438 0)
(0.100007 -0.000267729 0)
(0.100139 -0.000538555 0)
(0.10035 -0.000785149 0)
(0.10063 -0.00101538 0)
(0.100977 -0.00123271 0)
(0.101384 -0.00143939 0)
(0.101845 -0.00163725 0)
(0.102356 -0.00182777 0)
(0.102913 -0.0020121 0)
(0.103512 -0.00219114 0)
(0.104149 -0.00236563 0)
(0.104823 -0.00253616 0)
(0.105528 -0.00270319 0)
(0.106264 -0.00286711 0)
(0.107028 -0.00302825 0)
(0.107818 -0.00318684 0)
(0.108631 -0.00334309 0)
(0.109467 -0.00349714 0)
(0.110322 -0.0036491 0)
(0.111195 -0.00379905 0)
(0.112085 -0.00394704 0)
(0.11299 -0.00409308 0)
(0.113909 -0.00423717 0)
(0.11484 -0.00437927 0)
(0.115782 -0.00451933 0)
(0.116733 -0.00465727 0)
(0.117693 -0.00479301 0)
(0.11866 -0.00492644 0)
(0.119633 -0.00505742 0)
(0.12061 -0.00518582 0)
(0.121591 -0.00531146 0)
(0.122574 -0.00543416 0)
(0.123559 -0.00555372 0)
(0.124544 -0.00566993 0)
(0.125528 -0.00578253 0)
(0.126511 -0.00589126 0)
(0.127491 -0.00599584 0)
(0.128466 -0.00609594 0)
(0.129438 -0.00619124 0)
(0.130403 -0.00628136 0)
(0.131362 -0.00636589 0)
(0.132313 -0.00644439 0)
(0.133256 -0.00651639 0)
(0.134189 -0.00658136 0)
(0.135112 -0.00663872 0)
(0.136023 -0.00668785 0)
(0.136923 -0.00672806 0)
(0.13781 -0.00675859 0)
(0.138683 -0.00677862 0)
(0.139541 -0.00678722 0)
(0.140385 -0.00678339 0)
(0.141212 -0.00676601 0)
(0.142023 -0.00673388 0)
(0.142817 -0.00668563 0)
(0.143594 -0.00661978 0)
(0.144352 -0.00653468 0)
(0.145092 -0.00642853 0)
(0.145813 -0.00629935 0)
(0.146516 -0.00614495 0)
(0.147202 -0.00596296 0)
(0.147869 -0.00575082 0)
(0.148521 -0.00550575 0)
(0.149157 -0.00522479 0)
(0.14978 -0.00490485 0)
(0.150393 -0.00454272 0)
(0.150998 -0.00413517 0)
(0.1516 -0.00367905 0)
(0.152204 -0.00317147 0)
(0.152816 -0.00261 0)
(0.153443 -0.00199287 0)
(0.154094 -0.0013193 0)
(0.154778 -0.000589593 0)
(0.155506 0.000195016 0)
(0.156287 0.0010286 0)
(0.157132 0.00190264 0)
(0.158051 0.00280683 0)
(0.159051 0.00372771 0)
(0.160139 0.00464896 0)
(0.161315 0.00555193 0)
(0.162577 0.00641711 0)
(0.163915 0.00722641 0)
(0.100003 -0.000297875 0)
(0.100133 -0.000602251 0)
(0.100337 -0.0008802 0)
(0.100609 -0.00114012 0)
(0.100946 -0.00138579 0)
(0.101342 -0.00161956 0)
(0.101791 -0.00184342 0)
(0.10229 -0.00205898 0)
(0.102834 -0.00226751 0)
(0.103419 -0.00247003 0)
(0.104042 -0.00266734 0)
(0.1047 -0.00286011 0)
(0.105391 -0.00304888 0)
(0.106111 -0.00323407 0)
(0.106858 -0.00341605 0)
(0.107631 -0.00359509 0)
(0.108427 -0.00377141 0)
(0.109245 -0.00394518 0)
(0.110081 -0.00411654 0)
(0.110936 -0.00428555 0)
(0.111807 -0.00445227 0)
(0.112693 -0.00461673 0)
(0.113592 -0.00477891 0)
(0.114502 -0.00493878 0)
(0.115424 -0.00509627 0)
(0.116354 -0.00525131 0)
(0.117292 -0.00540379 0)
(0.118237 -0.00555359 0)
(0.119188 -0.00570056 0)
(0.120142 -0.00584454 0)
(0.1211 -0.00598534 0)
(0.12206 -0.00612277 0)
(0.123021 -0.00625659 0)
(0.123983 -0.00638656 0)
(0.124943 -0.00651242 0)
(0.125901 -0.00663386 0)
(0.126856 -0.00675058 0)
(0.127807 -0.00686223 0)
(0.128753 -0.00696844 0)
(0.129694 -0.00706881 0)
(0.130627 -0.00716289 0)
(0.131553 -0.00725022 0)
(0.132471 -0.00733028 0)
(0.133379 -0.00740252 0)
(0.134277 -0.00746633 0)
(0.135165 -0.00752104 0)
(0.136041 -0.00756595 0)
(0.136904 -0.00760027 0)
(0.137754 -0.00762315 0)
(0.138591 -0.00763367 0)
(0.139414 -0.00763082 0)
(0.140222 -0.0076135 0)
(0.141014 -0.00758052 0)
(0.141791 -0.00753057 0)
(0.142553 -0.00746224 0)
(0.143299 -0.00737401 0)
(0.144028 -0.00726423 0)
(0.144743 -0.00713111 0)
(0.145442 -0.00697279 0)
(0.146126 -0.00678723 0)
(0.146798 -0.00657235 0)
(0.147457 -0.00632594 0)
(0.148106 -0.0060458 0)
(0.148747 -0.00572969 0)
(0.149383 -0.00537547 0)
(0.150016 -0.00498119 0)
(0.150652 -0.00454515 0)
(0.151295 -0.0040661 0)
(0.15195 -0.00354339 0)
(0.152623 -0.00297719 0)
(0.153321 -0.00236866 0)
(0.15405 -0.0017201 0)
(0.154819 -0.00103507 0)
(0.155634 -0.000317949 0)
(0.156502 0.000424635 0)
(0.157428 0.00118224 0)
(0.158415 0.00194326 0)
(0.159464 0.00269596 0)
(0.160574 0.00342783 0)
(0.161741 0.00412666 0)
(0.162958 0.00478189 0)
(0.0999991 -0.000328951 0)
(0.100126 -0.000668015 0)
(0.100325 -0.000978629 0)
(0.100588 -0.00126955 0)
(0.100914 -0.00154488 0)
(0.101299 -0.00180708 0)
(0.101736 -0.00205823 0)
(0.102221 -0.00230009 0)
(0.10275 -0.00253405 0)
(0.103321 -0.00276123 0)
(0.103928 -0.00298253 0)
(0.10457 -0.00319866 0)
(0.105244 -0.00341024 0)
(0.105946 -0.00361775 0)
(0.106676 -0.00382157 0)
(0.10743 -0.00402203 0)
(0.108208 -0.00421936 0)
(0.109005 -0.00441376 0)
(0.109822 -0.00460537 0)
(0.110657 -0.00479427 0)
(0.111507 -0.00498053 0)
(0.112371 -0.00516417 0)
(0.113248 -0.00534518 0)
(0.114136 -0.00552351 0)
(0.115035 -0.0056991 0)
(0.115942 -0.00587186 0)
(0.116857 -0.00604168 0)
(0.117778 -0.00620841 0)
(0.118704 -0.00637189 0)
(0.119634 -0.00653195 0)
(0.120567 -0.00668838 0)
(0.121502 -0.00684095 0)
(0.122437 -0.00698942 0)
(0.123372 -0.00713353 0)
(0.124306 -0.00727297 0)
(0.125238 -0.00740743 0)
(0.126167 -0.00753657 0)
(0.127091 -0.00766002 0)
(0.12801 -0.00777738 0)
(0.128924 -0.00788822 0)
(0.129831 -0.00799207 0)
(0.13073 -0.00808845 0)
(0.131621 -0.0081768 0)
(0.132503 -0.00825655 0)
(0.133375 -0.00832707 0)
(0.134237 -0.0083877 0)
(0.135088 -0.00843769 0)
(0.135926 -0.00847628 0)
(0.136753 -0.00850261 0)
(0.137567 -0.00851578 0)
(0.138368 -0.0085148 0)
(0.139155 -0.00849863 0)
(0.139929 -0.00846615 0)
(0.140689 -0.00841614 0)
(0.141435 -0.00834734 0)
(0.142168 -0.00825838 0)
(0.142887 -0.00814784 0)
(0.143593 -0.00801422 0)
(0.144288 -0.00785596 0)
(0.144971 -0.0076715 0)
(0.145644 -0.00745924 0)
(0.146309 -0.00721759 0)
(0.146968 -0.00694507 0)
(0.147622 -0.00664029 0)
(0.148276 -0.00630207 0)
(0.148931 -0.00592951 0)
(0.149592 -0.00552208 0)
(0.150262 -0.00507974 0)
(0.150946 -0.00460309 0)
(0.151648 -0.00409343 0)
(0.152373 -0.00355297 0)
(0.153126 -0.00298483 0)
(0.153912 -0.00239317 0)
(0.154734 -0.00178314 0)
(0.155598 -0.00116069 0)
(0.156506 -0.000531872 0)
(0.157459 9.59948e-05 0)
(0.158457 0.000713904 0)
(0.159496 0.00131214 0)
(0.160574 0.0018822 0)
(0.161683 0.00241796 0)
(0.0999947 -0.000360963 0)
(0.10012 -0.000735818 0)
(0.100312 -0.00108036 0)
(0.100566 -0.00140358 0)
(0.100882 -0.00170985 0)
(0.101254 -0.00200176 0)
(0.101678 -0.00228148 0)
(0.102149 -0.00255089 0)
(0.102663 -0.00281149 0)
(0.103217 -0.00306451 0)
(0.103808 -0.00331092 0)
(0.104432 -0.00355153 0)
(0.105088 -0.00378698 0)
(0.105772 -0.00401782 0)
(0.106482 -0.00424448 0)
(0.107216 -0.0044673 0)
(0.107973 -0.00468656 0)
(0.108749 -0.00490246 0)
(0.109545 -0.00511516 0)
(0.110357 -0.00532477 0)
(0.111184 -0.00553134 0)
(0.112025 -0.0057349 0)
(0.112878 -0.00593543 0)
(0.113742 -0.00613289 0)
(0.114616 -0.00632721 0)
(0.115498 -0.00651829 0)
(0.116387 -0.00670599 0)
(0.117283 -0.00689018 0)
(0.118182 -0.00707066 0)
(0.119086 -0.00724725 0)
(0.119992 -0.00741972 0)
(0.120899 -0.00758783 0)
(0.121807 -0.00775131 0)
(0.122714 -0.00790987 0)
(0.12362 -0.0080632 0)
(0.124523 -0.00821096 0)
(0.125424 -0.00835278 0)
(0.126319 -0.00848827 0)
(0.12721 -0.00861701 0)
(0.128095 -0.00873855 0)
(0.128974 -0.0088524 0)
(0.129844 -0.00895806 0)
(0.130707 -0.00905497 0)
(0.131561 -0.00914254 0)
(0.132406 -0.00922014 0)
(0.133241 -0.00928709 0)
(0.134065 -0.00934269 0)
(0.134879 -0.00938615 0)
(0.135681 -0.00941668 0)
(0.136471 -0.00943341 0)
(0.137249 -0.00943542 0)
(0.138015 -0.00942174 0)
(0.13877 -0.00939137 0)
(0.139512 -0.00934323 0)
(0.140242 -0.00927623 0)
(0.140961 -0.00918922 0)
(0.141668 -0.00908104 0)
(0.142366 -0.00895051 0)
(0.143054 -0.00879644 0)
(0.143733 -0.00861771 0)
(0.144406 -0.00841323 0)
(0.145074 -0.00818202 0)
(0.145738 -0.00792323 0)
(0.146401 -0.0076362 0)
(0.147065 -0.00732054 0)
(0.147734 -0.00697616 0)
(0.148409 -0.00660338 0)
(0.149095 -0.00620296 0)
(0.149794 -0.00577621 0)
(0.15051 -0.00532503 0)
(0.151246 -0.00485199 0)
(0.152005 -0.00436033 0)
(0.152791 -0.00385395 0)
(0.153604 -0.00333742 0)
(0.154447 -0.00281588 0)
(0.155322 -0.00229488 0)
(0.156227 -0.00178009 0)
(0.157163 -0.00127704 0)
(0.158128 -0.000790289 0)
(0.159118 -0.00032445 0)
(0.160129 0.00011629 0)
(0.0999899 -0.000393904 0)
(0.100113 -0.000805608 0)
(0.100299 -0.00118529 0)
(0.100544 -0.00154204 0)
(0.100848 -0.00188051 0)
(0.101208 -0.00220337 0)
(0.101618 -0.00251289 0)
(0.102074 -0.00281105 0)
(0.102572 -0.00309948 0)
(0.103109 -0.00337948 0)
(0.103682 -0.00365211 0)
(0.104287 -0.00391826 0)
(0.104923 -0.00417862 0)
(0.105587 -0.00443379 0)
(0.106276 -0.00468424 0)
(0.106989 -0.00493035 0)
(0.107723 -0.00517241 0)
(0.108476 -0.00541066 0)
(0.109248 -0.00564526 0)
(0.110036 -0.00587634 0)
(0.110839 -0.00610394 0)
(0.111654 -0.00632811 0)
(0.112482 -0.00654883 0)
(0.11332 -0.00676604 0)
(0.114167 -0.00697968 0)
(0.115022 -0.00718962 0)
(0.115884 -0.00739573 0)
(0.116751 -0.00759784 0)
(0.117623 -0.00779577 0)
(0.118497 -0.0079893 0)
(0.119374 -0.00817819 0)
(0.120252 -0.00836218 0)
(0.12113 -0.00854099 0)
(0.122008 -0.0087143 0)