/*--------------------------------*- C++ -*----------------------------------*\
| =========                 |                                                 |
| \\      /  F ield         | OpenFOAM: The Open Source CFD Toolbox           |
|  \\    /   O peration     | Version:  2106                                  |
|   \\  /    A nd           | Website:  www.openfoam.com                      |
|    \\/     M anipulation  |                                                 |
\*---------------------------------------------------------------------------*/
FoamFile
{
    version     2.0;
    format      ascii;
    arch        "LSB;label=32;scalar=64";
    class       surfaceScalarField;
    location    "3.4";
    object      phi;
}
// * * * * * * * * * * * * * * * * * * * * * * * * * * * * * * * * * * * * * //

dimensions      [1 0 -1 0 0 0 0];

oriented        oriented;

internalField   nonuniform List<scalar> 
23692
(
9.31569e-05
-7.74085e-08
9.3297e-05
-1.40055e-07
9.34925e-05
-1.95407e-07
9.37364e-05
-2.43671e-07
9.40231e-05
-2.86494e-07
9.43482e-05
-3.24895e-07
9.47081e-05
-3.59556e-07
9.50994e-05
-3.9103e-07
9.55195e-05
-4.19738e-07
9.59659e-05
-4.46022e-07
9.64366e-05
-4.70158e-07
9.69294e-05
-4.92371e-07
9.74428e-05
-5.12846e-07
9.7975e-05
-5.31733e-07
9.85248e-05
-5.49159e-07
9.90906e-05
-5.65229e-07
9.96713e-05
-5.80024e-07
0.000100266
-5.93615e-07
0.000100872
-6.06064e-07
0.00010149
-6.17414e-07
0.000102119
-6.27715e-07
0.000102757
-6.37001e-07
0.000103403
-6.45309e-07
0.000104056
-6.52671e-07
0.000104716
-6.59121e-07
0.000105381
-6.64692e-07
0.000106052
-6.6942e-07
0.000106726
-6.73333e-07
0.000107403
-6.76465e-07
0.000108083
-6.78851e-07
0.000108764
-6.80518e-07
0.000109446
-6.81493e-07
0.000110129
-6.81802e-07
0.000110811
-6.81464e-07
0.000111493
-6.80493e-07
0.000112172
-6.789e-07
0.00011285
-6.7669e-07
0.000113525
-6.73861e-07
0.000114196
-6.70406e-07
0.000114863
-6.66307e-07
0.000115525
-6.61544e-07
0.000116182
-6.5609e-07
0.000116833
-6.49908e-07
0.000117476
-6.42956e-07
0.000118112
-6.35181e-07
0.00011874
-6.2653e-07
0.000119357
-6.16932e-07
0.000119964
-6.06311e-07
0.00012056
-5.94584e-07
0.000121142
-5.8165e-07
0.00012171
-5.67399e-07
0.000122262
-5.51703e-07
0.000122797
-5.34415e-07
0.000123313
-5.15369e-07
0.000123808
-4.94369e-07
0.00012428
-4.71187e-07
0.000124726
-4.45556e-07
0.000125144
-4.17157e-07
0.00012553
-3.85611e-07
0.000125881
-3.50463e-07
0.000126193
-3.11155e-07
0.000126461
-2.67004e-07
0.000126678
-2.17167e-07
0.000126839
-1.60584e-07
0.000126936
-9.59135e-08
0.000126958
-2.14404e-08
0.000126893
6.5104e-08
0.000126727
1.66769e-07
0.00012644
2.87693e-07
0.000126007
4.33591e-07
0.000125395
6.12548e-07
0.000124559
8.3629e-07
0.000123437
1.12226e-06
0.00012194
1.49713e-06
0.000119938
2.00279e-06
0.000117231
2.7068e-06
0.000113512
3.72031e-06
0.000108281
5.23066e-06
0.000100705
7.57654e-06
8.9268e-05
1.14376e-05
1.87169e-05
7.05515e-05
9.968e-05
-1.58265e-07
9.98291e-05
-2.89124e-07
0.000100038
-4.03876e-07
0.000100298
-5.03754e-07
0.000100604
-5.92403e-07
0.000100951
-6.71882e-07
0.000101336
-7.43615e-07
0.000101754
-8.08737e-07
0.000102203
-8.68136e-07
0.000102679
-9.22512e-07
0.000103182
-9.7244e-07
0.000103709
-1.01838e-06
0.000104257
-1.06073e-06
0.000104826
-1.09978e-06
0.000105413
-1.13582e-06
0.000106018
-1.16903e-06
0.000106638
-1.19961e-06
0.000107273
-1.2277e-06
0.000107921
-1.25342e-06
0.000108581
-1.27687e-06
0.000109252
-1.29814e-06
0.000109933
-1.31731e-06
0.000110623
-1.33445e-06
0.000111321
-1.34964e-06
0.000112026
-1.36293e-06
0.000112736
-1.37441e-06
0.000113452
-1.38413e-06
0.000114171
-1.39218e-06
0.000114894
-1.3986e-06
0.00011562
-1.40348e-06
0.000116347
-1.40687e-06
0.000117075
-1.40882e-06
0.000117804
-1.4094e-06
0.000118532
-1.40863e-06
0.000119259
-1.40656e-06
0.000119984
-1.40319e-06
0.000120707
-1.39856e-06
0.000121426
-1.39263e-06
0.000122142
-1.38541e-06
0.000122854
-1.37687e-06
0.00012356
-1.36695e-06
0.00012426
-1.35559e-06
0.000124954
-1.34274e-06
0.00012564
-1.32829e-06
0.000126318
-1.31215e-06
0.000126986
-1.29419e-06
0.000127644
-1.27428e-06
0.000128291
-1.25226e-06
0.000128925
-1.22796e-06
0.000129545
-1.20117e-06
0.00013015
-1.17167e-06
0.000130739
-1.13919e-06
0.000131308
-1.10344e-06
0.000131858
-1.06408e-06
0.000132385
-1.0207e-06
0.000132887
-9.72847e-07
0.000133362
-9.19972e-07
0.000133807
-8.61433e-07
0.000134219
-7.96462e-07
0.000134593
-7.24137e-07
0.000134926
-6.4334e-07
0.000135212
-5.52702e-07
0.000135446
-4.50534e-07
0.000135621
-3.34727e-07
0.000135728
-2.02626e-07
0.000135758
-5.08411e-08
0.000135698
1.25033e-07
0.000135535
3.30869e-07
0.000135248
5.74553e-07
0.000134816
8.66826e-07
0.000134206
1.2226e-06
0.00013338
1.663e-06
0.000132284
2.21853e-06
0.000130848
2.93414e-06
0.000128974
3.87703e-06
0.000126532
5.14872e-06
0.000123351
6.90171e-06
0.000119223
9.35973e-06
0.000113959
1.28411e-05
0.00010769
1.77063e-05
2.36733e-05
0.000102734
0.000106659
-2.42128e-07
0.000106817
-4.47073e-07
0.000107039
-6.25304e-07
0.000107316
-7.80523e-07
0.000107642
-9.18226e-07
0.000108012
-1.04165e-06
0.000108422
-1.15302e-06
0.000108867
-1.2541e-06
0.000109346
-1.34628e-06
0.000109855
-1.43066e-06
0.000110391
-1.50811e-06
0.000110952
-1.57937e-06
0.000111537
-1.64503e-06
0.000112144
-1.70559e-06
0.00011277
-1.76143e-06
0.000113414
-1.81291e-06
0.000114076
-1.86028e-06
0.000114753
-1.90377e-06
0.000115444
-1.94359e-06
0.000116147
-1.97987e-06
0.000116863
-2.01277e-06
0.000117589
-2.0424e-06
0.000118324
-2.06888e-06
0.000119068
-2.09232e-06
0.000119818
-2.11282e-06
0.000120575
-2.1305e-06
0.000121338
-2.14545e-06
0.000122104
-2.15778e-06
0.000122874
-2.1676e-06
0.000123647
-2.17501e-06
0.000124421
-2.18011e-06
0.000125196
-2.18298e-06
0.000125971
-2.1837e-06
0.000126746
-2.18234e-06
0.000127519
-2.17895e-06
0.00012829
-2.17355e-06
0.000129059
-2.16617e-06
0.000129824
-2.1568e-06
0.000130585
-2.14542e-06
0.000131341
-2.13197e-06
0.000132091
-2.1164e-06
0.000132835
-2.0986e-06
0.000133572
-2.07848e-06
0.0001343
-2.05589e-06
0.00013502
-2.03068e-06
0.000135729
-2.00265e-06
0.000136427
-1.97162e-06
0.000137113
-1.93732e-06
0.000137785
-1.8995e-06
0.000138443
-1.85785e-06
0.000139084
-1.81201e-06
0.000139707
-1.76159e-06
0.00014031
-1.70614e-06
0.000140892
-1.64514e-06
0.00014145
-1.57798e-06
0.000141982
-1.50397e-06
0.000142485
-1.42229e-06
0.000142956
-1.33196e-06
0.000143392
-1.23185e-06
0.000143789
-1.12057e-06
0.000144143
-9.96469e-07
0.000144449
-8.57527e-07
0.0001447
-7.01263e-07
0.000144891
-5.24601e-07
0.000145012
-3.23699e-07
0.000145056
-9.36967e-08
0.00014501
1.71608e-07
0.000144861
4.80343e-07
0.000144593
8.43251e-07
0.000144185
1.27464e-06
0.000143615
1.79383e-06
0.000142851
2.42724e-06
0.000141859
3.21141e-06
0.000140596
4.19721e-06
0.000139018
5.45558e-06
0.000137083
7.08416e-06
0.000134773
9.21216e-06
0.000132138
1.19953e-05
0.000129401
1.5578e-05
0.000127177
1.99314e-05
2.43157e-05
0.000126535
0.000114127
-3.28845e-07
0.000114293
-6.1356e-07
0.000114528
-8.59609e-07
0.000114822
-1.07413e-06
0.000115168
-1.26435e-06
0.000115561
-1.43477e-06
0.000115997
-1.58851e-06
0.000116472
-1.728e-06
0.000116981
-1.85517e-06
0.000117522
-1.97154e-06
0.000118093
-2.07834e-06
0.000118691
-2.17657e-06
0.000119314
-2.26705e-06
0.000119959
-2.35046e-06
0.000120626
-2.42736e-06
0.000121312
-2.49822e-06
0.000122016
-2.5634e-06
0.000122736
-2.62322e-06
0.000123471
-2.67795e-06
0.00012422
-2.7278e-06
0.000124981
-2.77296e-06
0.000125753
-2.81361e-06
0.000126535
-2.8499e-06
0.000127326
-2.88198e-06
0.000128124
-2.91e-06
0.000128928
-2.93411e-06
0.000129738
-2.95445e-06
0.000130553
-2.97117e-06
0.000131371
-2.98442e-06
0.000132191
-2.99434e-06
0.000133013
-3.00105e-06
0.000133836
-3.00469e-06
0.000134658
-3.00536e-06
0.00013548
-3.00314e-06
0.0001363
-2.99812e-06
0.000137118
-2.99034e-06
0.000137933
-2.97981e-06
0.000138743
-2.96653e-06
0.000139549
-2.95047e-06
0.00014035
-2.93157e-06
0.000141144
-2.90974e-06
0.000141931
-2.88485e-06
0.000142711
-2.85676e-06
0.000143481
-2.82527e-06
0.000144241
-2.79018e-06
0.000144991
-2.75123e-06
0.000145728
-2.70815e-06
0.000146452
-2.6606e-06
0.000147162
-2.60823e-06
0.000147856
-2.55062e-06
0.000148532
-2.4873e-06
0.000149189
-2.41774e-06
0.000149825
-2.34133e-06
0.000150438
-2.25737e-06
0.000151026
-2.16507e-06
0.000151586
-2.0635e-06
0.000152116
-1.95158e-06
0.000152613
-1.82803e-06
0.000153073
-1.69136e-06
0.000153493
-1.53978e-06
0.000153868
-1.37115e-06
0.000154194
-1.18287e-06
0.000154466
-9.718e-07
0.000154676
-7.34063e-07
0.000154817
-4.64874e-07
0.000154883
-1.58275e-07
0.000154862
1.93184e-07
0.000154744
5.99014e-07
0.000154516
1.07151e-06
0.000154165
1.62658e-06
0.000153674
2.2849e-06
0.000153028
3.07346e-06
0.000152213
4.02757e-06
0.000151217
5.19304e-06
0.000150045
6.62823e-06
0.000148726
8.40449e-06
0.000147337
1.06012e-05
0.000146045
1.32873e-05
0.000145152
1.64717e-05
0.000145101
1.99833e-05
2.32347e-05
0.000146182
0.000122117
-4.18342e-07
0.000122292
-7.88303e-07
0.000122539
-1.10667e-06
0.00012285
-1.38464e-06
0.000123217
-1.63104e-06
0.000123634
-1.8517e-06
0.000124097
-2.05068e-06
0.0001246
-2.23117e-06
0.000125141
-2.39566e-06
0.000125716
-2.54612e-06
0.000126323
-2.68416e-06
0.000126958
-2.81107e-06
0.00012762
-2.92792e-06
0.000128305
-3.0356e-06
0.000129014
-3.13483e-06
0.000129742
-3.2262e-06
0.00013049
-3.31022e-06
0.000131255
-3.38728e-06
0.000132036
-3.45772e-06
0.000132831
-3.52184e-06
0.000133638
-3.57988e-06
0.000134458
-3.63206e-06
0.000135288
-3.67858e-06
0.000136126
-3.71965e-06
0.000136973
-3.75544e-06
0.000137826
-3.78616e-06
0.000138684
-3.812e-06
0.000139547
-3.83314e-06
0.000140414
-3.84977e-06
0.000141283
-3.86208e-06
0.000142153
-3.87023e-06
0.000143024
-3.8744e-06
0.000143894
-3.87471e-06
0.000144763
-3.87128e-06
0.000145631
-3.86422e-06
0.000146495
-3.85357e-06
0.000147355
-3.83938e-06
0.000148212
-3.82163e-06
0.000149062
-3.80028e-06
0.000149907
-3.77526e-06
0.000150745
-3.74645e-06
0.000151575
-3.7137e-06
0.000152396
-3.67682e-06
0.000153207
-3.63557e-06
0.000154008
-3.58969e-06
0.000154796
-3.53886e-06
0.000155572
-3.48273e-06
0.000156333
-3.42088e-06
0.000157079
-3.35286e-06
0.000157807
-3.27815e-06
0.000158517
-3.19617e-06
0.000159206
-3.10625e-06
0.000159873
-3.00764e-06
0.000160516
-2.89948e-06
0.000161133
-2.78078e-06
0.000161721
-2.65042e-06
0.000162277
-2.50708e-06
0.000162799
-2.34922e-06
0.000163283
-2.17504e-06
0.000163727
-1.98242e-06
0.000164125
-1.76882e-06
0.000164474
-1.53122e-06
0.000164769
-1.26598e-06
0.000165004
-9.68694e-07
0.000165174
-6.33993e-07
0.000165272
-2.55318e-07
0.00016529
1.75321e-07
0.000165222
6.67777e-07
0.00016506
1.23442e-06
0.000164797
1.89065e-06
0.000164426
2.65561e-06
0.000163948
3.55288e-06
0.000163365
4.6112e-06
0.000162693
5.86472e-06
0.00016197
7.35219e-06
0.000161261
9.11373e-06
0.000160681
1.11823e-05
0.000160403
1.35655e-05
0.000160666
1.62097e-05
0.000161711
1.89388e-05
2.13723e-05
0.000163574
0.000130667
-5.1064e-07
0.00013085
-9.71085e-07
0.00013111
-1.36635e-06
0.000131437
-1.71202e-06
0.000131825
-2.01844e-06
0.000132267
-2.29274e-06
0.000132756
-2.54001e-06
0.00013329
-2.76421e-06
0.000133863
-2.96846e-06
0.000134473
-3.15521e-06
0.000135116
-3.32645e-06
0.000135789
-3.48382e-06
0.000136491
-3.62864e-06
0.000137218
-3.76202e-06
0.000137969
-3.88486e-06
0.000138741
-3.99792e-06
0.000139534
-4.10179e-06
0.000140344
-4.19698e-06
0.000141171
-4.28394e-06
0.000142014
-4.363e-06
0.000142869
-4.43448e-06
0.000143737
-4.49866e-06
0.000144615
-4.55579e-06
0.000145503
-4.60612e-06
0.000146398
-4.64988e-06
0.0001473
-4.68732e-06
0.000148208
-4.71867e-06
0.00014912
-4.74417e-06
0.000150036
-4.76405e-06
0.000150953
-4.77854e-06
0.000151872
-4.78786e-06
0.000152791
-4.79221e-06
0.000153709
-4.79175e-06
0.000154626
-4.78665e-06
0.00015554
-4.77702e-06
0.00015645
-4.76293e-06
0.000157357
-4.74443e-06
0.000158258
-4.72152e-06
0.000159153
-4.69414e-06
0.000160041
-4.66221e-06
0.000160921
-4.6256e-06
0.000161792
-4.58411e-06
0.000162654
-4.53752e-06
0.000163505
-4.48555e-06
0.000164344
-4.42787e-06
0.000165171
-4.36411e-06
0.000165983
-4.29385e-06
0.00016678
-4.21658e-06
0.000167559
-4.13178e-06
0.000168321
-4.03881e-06
0.000169063
-3.93699e-06
0.000169783
-3.82554e-06
0.00017048
-3.70357e-06
0.000171151
-3.57009e-06
0.000171796
-3.42394e-06
0.00017241
-3.26383e-06
0.000172992
-3.08825e-06
0.000173539
-2.89546e-06
0.000174048
-2.68343e-06
0.000174516
-2.44981e-06
0.00017494
-2.19181e-06
0.000175316
-1.90615e-06
0.00017564
-1.58896e-06
0.000175907
-1.2356e-06
0.000176115
-8.40575e-07
0.000176257
-3.97294e-07
0.000176331
1.02023e-07
0.000176333
6.66583e-07
0.000176261
1.30738e-06
0.000176115
2.03763e-06
0.000175898
2.87278e-06
0.000175621
3.83054e-06
0.000175302
4.93062e-06
0.000174974
6.19374e-06
0.000174687
7.63954e-06
0.000174519
9.28241e-06
0.000174578
1.11241e-05
0.000175003
1.31411e-05
0.000175948
1.52655e-05
0.000177527
1.73603e-05
1.92009e-05
0.000179699
0.000139816
-6.05814e-07
0.000140006
-1.16174e-06
0.000140279
-1.63852e-06
0.000140623
-2.05621e-06
0.000141032
-2.42659e-06
0.000141497
-2.75808e-06
0.000142015
-3.0568e-06
0.000142578
-3.32756e-06
0.000143185
-3.57411e-06
0.00014383
-3.79942e-06
0.00014451
-4.00592e-06
0.000145222
-4.19557e-06
0.000145964
-4.37001e-06
0.000146734
-4.53056e-06
0.000147528
-4.67832e-06
0.000148345
-4.81419e-06
0.000149183
-4.93893e-06
0.00015004
-5.05315e-06
0.000150915
-5.15736e-06
0.000151805
-5.25201e-06
0.000152709
-5.33746e-06
0.000153625
-5.41405e-06
0.000154553
-5.48211e-06
0.00015549
-5.54191e-06
0.000156435
-5.59376e-06
0.000157387
-5.63794e-06
0.000158344
-5.67473e-06
0.000159305
-5.70444e-06
0.00016027
-5.72733e-06
0.000161236
-5.7437e-06
0.000162203
-5.7538e-06
0.00016317
-5.75787e-06
0.000164136
-5.75613e-06
0.000165099
-5.74876e-06
0.000166059
-5.73592e-06
0.000167015
-5.71768e-06
0.000167966
-5.69412e-06
0.000168911
-5.66523e-06
0.000169849
-5.63097e-06
0.00017078
-5.59123e-06
0.000171701
-5.54586e-06
0.000172613
-5.49464e-06
0.000173514
-5.43731e-06
0.000174403
-5.37356e-06
0.000175279
-5.303e-06
0.000176141
-5.22519e-06
0.000176988
-5.13966e-06
0.000177818
-5.04583e-06
0.000178631
-4.94309e-06
0.000179424
-4.83072e-06
0.000180196
-4.70795e-06
0.000180945
-4.57389e-06
0.00018167
-4.42756e-06
0.000182369
-4.26784e-06
0.000183039
-4.09347e-06
0.000183679
-3.90302e-06
0.000184287
-3.69485e-06
0.00018486
-3.46711e-06
0.000185395
-3.21765e-06
0.00018589
-2.94399e-06
0.000186342
-2.64329e-06
0.000186749
-2.31221e-06
0.000187108
-1.94693e-06
0.000187416
-1.54294e-06
0.000187671
-1.09506e-06
0.000187872
-5.97238e-07
0.000188017
-4.26057e-08
0.000188108
5.76712e-07
0.000188147
1.26916e-06
0.00018814
2.04473e-06
0.0001881
2.91413e-06
0.000188043
3.88849e-06
0.000187995
4.97849e-06
0.000187997
6.19309e-06
0.0001881
7.53732e-06
0.000188374
9.00888e-06
0.000188905
1.05933e-05
0.000189789
1.22574e-05
0.000191114
1.39411e-05
0.000192925
1.55505e-05
1.69597e-05
0.000195167
0.000149605
-7.03973e-07
0.000149803
-1.36016e-06
0.000150088
-1.92308e-06
0.000150449
-2.4171e-06
0.000150879
-2.85547e-06
0.000151369
-3.24778e-06
0.000151914
-3.60124e-06
0.000152508
-3.92149e-06
0.000153147
-4.21296e-06
0.000153828
-4.47918e-06
0.000154546
-4.72304e-06
0.000155298
-4.94686e-06
0.000156081
-5.15258e-06
0.000156893
-5.34178e-06
0.000157732
-5.51577e-06
0.000158594
-5.67561e-06
0.000159478
-5.82222e-06
0.000160382
-5.9563e-06
0.000161305
-6.0785e-06
0.000162243
-6.18931e-06
0.000163196
-6.2892e-06
0.000164162
-6.37857e-06
0.000165139
-6.45778e-06
0.000166125
-6.52719e-06
0.00016712
-6.58715e-06
0.000168121
-6.638e-06
0.000169128
-6.68008e-06
0.000170138
-6.71373e-06
0.000171152
-6.7393e-06
0.000172166
-6.75712e-06
0.000173181
-6.76749e-06
0.000174196
-6.77072e-06
0.000175208
-6.76705e-06
0.000176217
-6.7567e-06
0.000177222
-6.73987e-06
0.000178223
-6.71666e-06
0.000179217
-6.68715e-06
0.000180204
-6.65136e-06
0.000181184
-6.60923e-06
0.000182155
-6.56066e-06
0.000183116
-6.50547e-06
0.000184066
-6.44343e-06
0.000185004
-6.37425e-06
0.000185929
-6.29757e-06
0.00018684
-6.21296e-06
0.000187736
-6.11995e-06
0.000188616
-6.01799e-06
0.000189477
-5.90645e-06
0.00019032
-5.78464e-06
0.000191142
-5.65181e-06
0.000191943
-5.50708e-06
0.000192719
-5.3495e-06
0.000193471
-5.17802e-06
0.000194195
-4.99144e-06
0.000194891
-4.78843e-06
0.000195557
-4.56751e-06
0.00019619
-4.32699e-06
0.000196789
-4.06498e-06
0.000197352
-3.77933e-06
0.000197876
-3.46762e-06
0.000198361
-3.12709e-06
0.000198804
-2.75462e-06
0.000199205
-2.34666e-06
0.000199562
-1.89922e-06
0.000199875
-1.4078e-06
0.000200146
-8.67379e-07
0.000200377
-2.72461e-07
0.000200572
3.82821e-07
0.000200737
1.10423e-06
0.000200885
1.89794e-06
0.00020103
2.76993e-06
0.000201194
3.7253e-06
0.000201406
4.76743e-06
0.000201703
5.89676e-06
0.000202132
7.10917e-06
0.000202747
8.39388e-06
0.00020361
9.73098e-06
0.00020478
1.10887e-05
0.0002063
1.24213e-05
0.000208183
1.36688e-05
1.47621e-05
0.000210381
0.00016008
-8.0524e-07
0.000160286
-1.56624e-06
0.000160583
-2.2199e-06
0.000160961
-2.79454e-06
0.00016141
-3.30494e-06
0.000161925
-3.76177e-06
0.000162497
-4.17331e-06
0.000163122
-4.54605e-06
0.000163795
-4.88514e-06
0.000164511
-5.1947e-06
0.000165267
-5.47806e-06
0.000166059
-5.73796e-06
0.000166884
-5.97665e-06
0.000167739
-6.19599e-06
0.000168622
-6.3975e-06
0.00016953
-6.58245e-06
0.000170461
-6.75188e-06
0.000171412
-6.90666e-06
0.000172382
-7.0475e-06
0.000173369
-7.17502e-06
0.000174371
-7.28975e-06
0.000175386
-7.39216e-06
0.000176412
-7.48269e-06
0.000177448
-7.56175e-06
0.000178492
-7.62975e-06
0.000179542
-7.68709e-06
0.000180598
-7.73419e-06
0.000181657
-7.77142e-06
0.000182718
-7.79921e-06
0.00018378
-7.81793e-06
0.000184842
-7.82795e-06
0.000185903
-7.82963e-06
0.00018696
-7.82325e-06
0.000188014
-7.8091e-06
0.000189063
-7.78737e-06
0.000190106
-7.75823e-06
0.000191142
-7.72177e-06
0.00019217
-7.67801e-06
0.000193189
-7.62692e-06
0.000194198
-7.56838e-06
0.000195196
-7.50221e-06
0.000196182
-7.42817e-06
0.000197155
-7.34594e-06
0.000198114
-7.25513e-06
0.000199058
-7.15528e-06
0.000199985
-7.04588e-06
0.000200895
-6.92633e-06
0.000201786
-6.79597e-06
0.000202656
-6.65406e-06
0.000203505
-6.49979e-06
0.000204332
-6.33226e-06
0.000205134
-6.15048e-06
0.00020591
-5.95334e-06
0.00020666
-5.73964e-06
0.00020738
-5.50803e-06
0.000208071
-5.25705e-06
0.00020873
-4.98505e-06
0.000209356
-4.69021e-06
0.000209949
-4.37052e-06
0.000210506
-4.02373e-06
0.000211027
-3.64738e-06
0.000211512
-3.23874e-06
0.000211961
-2.79484e-06
0.000212375
-2.31241e-06
0.000212756
-1.78797e-06
0.000213108
-1.21784e-06
0.000213434
-5.98194e-07
0.000213743
7.48181e-08
0.000214044
8.04363e-07
0.00021435
1.59288e-06
0.000214678
2.44234e-06
0.000215051
3.35323e-06
0.000215496
4.32388e-06
0.000216043
5.34962e-06
0.000216732
6.42187e-06
0.000217599
7.5271e-06
0.000218685
8.64591e-06
0.000220022
9.75242e-06
0.000221629
1.08145e-05
0.000223504
1.17952e-05
1.26571e-05
0.000225609
0.000171288
-9.09724e-07
0.000171502
-1.77989e-06
0.000171811
-2.52883e-06
0.000172205
-3.18834e-06
0.000172675
-3.77479e-06
0.000173214
-4.29986e-06
0.000173814
-4.77284e-06
0.000174469
-5.20112e-06
0.000175175
-5.59056e-06
0.000175927
-5.94589e-06
0.000176721
-6.27093e-06
0.000177553
-6.56883e-06
0.000178419
-6.84219e-06
0.000179317
-7.09315e-06
0.000180244
-7.32347e-06
0.000181198
-7.53462e-06
0.000182175
-7.7278e-06
0.000183173
-7.90402e-06
0.000184191
-8.06411e-06
0.000185226
-8.20879e-06
0.000186277
-8.33868e-06
0.00018734
-8.45433e-06
0.000188415
-8.55624e-06
0.0001895
-8.64489e-06
0.000190592
-8.72077e-06
0.000191691
-8.78433e-06
0.000192794
-8.83604e-06
0.0001939
-8.87637e-06
0.000195009
-8.90579e-06
0.000196117
-8.92474e-06
0.000197224
-8.93366e-06
0.000198329
-8.93295e-06
0.00019943
-8.92297e-06
0.000200527
-8.90402e-06
0.000201617
-8.87637e-06
0.000202701
-8.84021e-06
0.000203776
-8.79566e-06
0.000204842
-8.74277e-06
0.000205898
-8.68151e-06
0.000206943
-8.61177e-06
0.000207976
-8.53339e-06
0.000208995
-8.44609e-06
0.00021
-8.34955e-06
0.00021099
-8.24337e-06
0.000211963
-8.12707e-06
0.000212919
-8.00011e-06
0.000213856
-7.86186e-06
0.000214773
-7.71166e-06
0.000215669
-7.54872e-06
0.000216542
-7.37224e-06
0.000217393
-7.18129e-06
0.000218218
-6.97488e-06
0.000219018
-6.75194e-06
0.000219791
-6.51127e-06
0.000220536
-6.25162e-06
0.000221252
-5.97157e-06
0.000221937
-5.66963e-06
0.000222592
-5.34416e-06
0.000223216
-4.99338e-06
0.000223809
-4.6154e-06
0.000224371
-4.20818e-06
0.000224903
-3.76956e-06
0.000225406
-3.29729e-06
0.000225884
-2.78903e-06
0.000226339
-2.24247e-06
0.000226778
-1.65533e-06
0.000227206
-1.02554e-06
0.000227633
-3.51249e-07
0.00022807
3.68712e-07
0.00022853
1.13397e-06
0.000229029
1.9433e-06
0.000229589
2.79412e-06
0.000230232
3.68189e-06
0.000230983
4.59962e-06
0.000231868
5.53748e-06
0.000232914
6.48247e-06
0.000234142
7.4183e-06
0.00023557
8.32568e-06
0.000237202
9.18305e-06
0.00023903
9.96822e-06
1.0661e-05
0.000241027
0.000183281
-1.0175e-06
0.000183502
-2.001e-06
0.000183823
-2.84967e-06
0.000184233
-3.59822e-06
0.000184723
-4.26467e-06
0.000185286
-4.86166e-06
0.000185913
-5.39945e-06
0.000186599
-5.8863e-06
0.000187338
-6.32883e-06
0.000188125
-6.73237e-06
0.000188956
-7.10126e-06
0.000189827
-7.43907e-06
0.000190735
-7.74877e-06
0.000191676
-8.0328e-06
0.000192647
-8.29317e-06
0.000193645
-8.53156e-06
0.000194668
-8.74936e-06
0.000195713
-8.94771e-06
0.000196777
-9.12759e-06
0.00019786
-9.28982e-06
0.000198958
-9.4351e-06
0.000200069
-9.56407e-06
0.000201191
-9.67731e-06
0.000202323
-9.77539e-06
0.000203463
-9.85885e-06
0.000204608
-9.92822e-06
0.000205758
-9.98404e-06
0.00020691
-1.00269e-05
0.000208063
-1.00572e-05
0.000209216
-1.00756e-05
0.000210366
-1.00825e-05
0.000211513
-1.00784e-05
0.000212656
-1.00638e-05
0.000213792
-1.0039e-05
0.000214922
-1.00042e-05
0.000216043
-9.95985e-06
0.000217155
-9.90596e-06
0.000218256
-9.84266e-06
0.000219346
-9.76992e-06
0.000220424
-9.68768e-06
0.000221488
-9.59575e-06
0.000222537
-9.49389e-06
0.000223571
-9.38176e-06
0.000224588
-9.25896e-06
0.000225588
-9.12502e-06
0.000226568
-8.97938e-06
0.000227529
-8.82142e-06
0.00022847
-8.65047e-06
0.000229388
-8.46577e-06
0.000230284
-8.2665e-06
0.000231156
-8.05179e-06
0.000232003
-7.82069e-06
0.000232824
-7.57217e-06
0.000233619
-7.30517e-06
0.000234388
-7.01852e-06
0.000235128
-6.711e-06
0.000235841
-6.38131e-06
0.000236526
-6.02808e-06
0.000237184
-5.64991e-06
0.000237815
-5.24533e-06
0.000238421
-4.81284e-06
0.000239004
-4.35095e-06
0.000239566
-3.85822e-06
0.000240111
-3.33331e-06
0.000240645
-2.77504e-06
0.000241173
-2.18251e-06
0.000241703
-1.5552e-06
0.000242246
-8.93009e-07
0.000242812
-1.96319e-07
0.000243414
5.33129e-07
0.000244067
1.29183e-06
0.000244786
2.07544e-06
0.000245591
2.87823e-06
0.000246499
3.69275e-06
0.000247527
4.50976e-06
0.000248692
5.31827e-06
0.000250006
6.10574e-06
0.000251474
6.85852e-06
0.000253095
7.56264e-06
0.000254859
8.20492e-06
8.77461e-06
0.000256746
0.000196113
-1.1286e-06
0.000196342
-2.22941e-06
0.000196675
-3.18211e-06
0.0001971
-4.02377e-06
0.00019761
-4.77408e-06
0.000198196
-5.4466e-06
0.000198849
-6.0525e-06
0.000199565
-6.60094e-06
0.000200336
-7.09925e-06
0.000201158
-7.5534e-06
0.000202026
-7.96827e-06
0.000202936
-8.34786e-06
0.000203883
-8.69552e-06
0.000204866
-9.01401e-06
0.000205879
-9.30561e-06
0.000206921
-9.57222e-06
0.000207989
-9.81542e-06
0.000209079
-1.00365e-05
0.000210189
-1.02366e-05
0.000211318
-1.04167e-05
0.000212462
-1.05774e-05
0.000213619
-1.07197e-05
0.000214787
-1.08441e-05
0.000215965
-1.09513e-05
0.00021715
-1.1042e-05
0.00021834
-1.11166e-05
0.000219533
-1.11759e-05
0.000220729
-1.12204e-05
0.000221924
-1.12508e-05
0.000223118
-1.12677e-05
0.000224309
-1.12716e-05
0.000225495
-1.12631e-05
0.000226676
-1.12427e-05
0.000227849
-1.12107e-05
0.000229014
-1.11676e-05
0.00023017
-1.11137e-05
0.000231315
-1.10491e-05
0.000232448
-1.0974e-05
0.000233568
-1.08884e-05
0.000234675
-1.07923e-05
0.000235766
-1.06855e-05
0.000236841
-1.05677e-05
0.0002379
-1.04387e-05
0.000238941
-1.02981e-05
0.000239963
-1.01454e-05
0.000240965
-9.98003e-06
0.000241947
-9.80148e-06
0.000242907
-9.60905e-06
0.000243845
-9.40204e-06
0.000244759
-9.17969e-06
0.00024565
-8.94119e-06
0.000246517
-8.68568e-06
0.000247358
-8.41226e-06
0.000248174
-8.12e-06
0.000248965
-7.80793e-06
0.000249731
-7.47505e-06
0.000250471
-7.12035e-06
0.000251187
-6.74281e-06
0.00025188
-6.34144e-06
0.000252551
-5.91527e-06
0.000253203
-5.4634e-06
0.000253838
-4.98504e-06
0.000254461
-4.47955e-06
0.000255075
-3.94651e-06
0.000255687
-3.38578e-06
0.000256303
-2.7976e-06
0.000256932
-2.18266e-06
0.000257582
-1.54218e-06
0.000258265
-8.77971e-07
0.000258991
-1.92243e-07
0.000259773
5.11188e-07
0.000260622
1.22695e-06
0.000261553
1.94894e-06
0.000262576
2.67036e-06
0.000263703
3.3834e-06
0.000264943
4.07944e-06
0.000266301
4.74933e-06
0.000267776
5.38378e-06
0.000269366
5.97393e-06
0.00027106
6.51206e-06
6.99261e-06
0.000272842
0.000209844
-1.24299e-06
0.00021008
-2.46487e-06
0.000210424
-3.52573e-06
0.000210865
-4.46442e-06
0.000211394
-5.3023e-06
0.000212001
-6.05384e-06
0.000212681
-6.73106e-06
0.000213424
-7.34399e-06
0.000214227
-7.9007e-06
0.000215082
-8.4078e-06
0.000215985
-8.87069e-06
0.000216933
-9.29386e-06
0.000217919
-9.68103e-06
0.000218942
-1.00353e-05
0.000219997
-1.03592e-05
0.000221081
-1.06549e-05
0.000222191
-1.09242e-05
0.000223324
-1.11685e-05
0.000224478
-1.13892e-05
0.000225651
-1.15872e-05
0.000226838
-1.17635e-05
0.000228039
-1.19189e-05
0.000229251
-1.20542e-05
0.000230471
-1.21701e-05
0.000231698
-1.22673e-05
0.00023293
-1.23466e-05
0.000234165
-1.24085e-05
0.0002354
-1.24539e-05
0.000236634
-1.24834e-05
0.000237866
-1.24977e-05
0.000239094
-1.24974e-05
0.000240316
-1.24832e-05
0.00024153
-1.24556e-05
0.000242737
-1.24152e-05
0.000243934
-1.23624e-05
0.000245119
-1.22975e-05
0.000246293
-1.22208e-05
0.000247453
-1.21324e-05
0.000248599
-1.20326e-05
0.00024973
-1.19211e-05
0.000250844
-1.1798e-05
0.000251941
-1.16631e-05
0.00025302
-1.15159e-05
0.00025408
-1.13563e-05
0.00025512
-1.11838e-05
0.00025614
-1.09979e-05
0.000257138
-1.0798e-05
0.000258114
-1.05836e-05
0.000259068
-1.0354e-05
0.000259999
-1.01086e-05
0.000260906
-9.84661e-06
0.000261789
-9.56736e-06
0.000262648
-9.2701e-06
0.000263484
-8.95409e-06
0.000264296
-8.61861e-06
0.000265085
-8.26293e-06
0.000265853
-7.88637e-06
0.0002666
-7.48831e-06
0.000267328
-7.0682e-06
0.00026804
-6.62557e-06
0.000268738
-6.16013e-06
0.000269426
-5.67172e-06
0.000270108
-5.16043e-06
0.000270789
-4.62662e-06
0.000271476
-4.07099e-06
0.000272174
-3.4946e-06
0.000272891
-2.899e-06
0.000273637
-2.28624e-06
0.000274419
-1.65887e-06
0.000275248
-1.01995e-06
0.000276133
-3.7274e-07
0.000277083
2.78276e-07
0.000278105
9.27394e-07
0.000279208
1.56826e-06
0.000280398
2.19471e-06
0.000281678
2.80032e-06
0.00028305
3.37863e-06
0.000284511
3.9235e-06
0.000286057
4.42942e-06
0.000287678
4.89194e-06
5.30837e-06
0.000289363
0.000224537
-1.36057e-06
0.000224779
-2.70704e-06
0.000225134
-3.87991e-06
0.000225589
-4.91936e-06
0.000226135
-5.84832e-06
0.000226764
-6.68219e-06
0.000227468
-7.4338e-06
0.000228239
-8.11399e-06
0.00022907
-8.73159e-06
0.000229957
-9.29384e-06
0.000230895
-9.8067e-06
0.000231877
-1.02751e-05
0.0002329
-1.07032e-05
0.000233961
-1.10944e-05
0.000235055
-1.14516e-05
0.000236178
-1.17772e-05
0.000237329
-1.20731e-05
0.000238503
-1.2341e-05
0.000239698
-1.25824e-05
0.000240911
-1.27983e-05
0.000242139
-1.299e-05
0.00024338
-1.31582e-05
0.000244632
-1.3304e-05
0.000245891
-1.3428e-05
0.000247157
-1.35311e-05
0.000248427
-1.36141e-05
0.000249698
-1.36778e-05
0.000250969
-1.3723e-05
0.000252238
-1.37504e-05
0.000253503
-1.37609e-05
0.000254763
-1.37551e-05
0.000256016
-1.37339e-05
0.00025726
-1.36978e-05
0.000258494
-1.36475e-05
0.000259717
-1.35834e-05
0.000260928
-1.3506e-05
0.000262125
-1.34157e-05
0.000263307
-1.33127e-05
0.000264474
-1.3197e-05
0.000265623
-1.30689e-05
0.000266755
-1.29281e-05
0.000267869
-1.27747e-05
0.000268963
-1.26083e-05
0.000270038
-1.24287e-05
0.000271091
-1.22355e-05
0.000272123
-1.20282e-05
0.000273134
-1.18065e-05
0.000274122
-1.15699e-05
0.000275087
-1.13177e-05
0.00027603
-1.10495e-05
0.00027695
-1.07647e-05
0.000277847
-1.04627e-05
0.000278721
-1.0143e-05
0.000279574
-9.80514e-06
0.000280406
-9.4486e-06
0.000281217
-9.07298e-06
0.00028201
-8.67795e-06
0.000282787
-8.26328e-06
0.000283549
-7.82885e-06
0.0002843
-7.37468e-06
0.000285042
-6.90099e-06
0.00028578
-6.4082e-06
0.000286518
-5.89697e-06
0.000287261
-5.36825e-06
0.000288015
-4.82331e-06
0.000288785
-4.26378e-06
0.000289579
-3.69168e-06
0.000290404
-3.10943e-06
0.000291266
-2.51987e-06
0.000292173
-1.92621e-06
0.000293134
-1.33194e-06
0.000294154
-7.40609e-07
0.000295238
-1.56054e-07
0.000296391
4.16855e-07
0.000297614
9.72991e-07
0.000298908
1.50731e-06
0.000300273
2.01532e-06
0.000301704
2.49312e-06
0.000303197
2.93727e-06
0.000304745
3.34529e-06
3.71606e-06
0.000306338
0.000240258
-1.48113e-06
0.000240506
-2.95541e-06
0.00024087
-4.24384e-06
0.000241339
-5.38749e-06
0.000241902
-6.41081e-06
0.000242551
-7.33007e-06
0.000243276
-8.15891e-06
0.000244072
-8.90894e-06
0.000244931
-9.58974e-06
0.000245848
-1.02092e-05
0.000246816
-1.07738e-05
0.000247831
-1.12889e-05
0.000248888
-1.17592e-05
0.000249984
-1.21884e-05
0.000251113
-1.25797e-05
0.000252273
-1.29357e-05
0.00025346
-1.32586e-05
0.000254671
-1.35503e-05
0.000255903
-1.38124e-05
0.000257153
-1.40461e-05
0.000258418
-1.42528e-05
0.000259695
-1.44334e-05
0.000260982
-1.4589e-05
0.000262276
-1.47204e-05
0.000263576
-1.48285e-05
0.000264878
-1.49143e-05
0.000266181
-1.49786e-05
0.000267482
-1.50224e-05
0.000268781
-1.50465e-05
0.000270074
-1.50518e-05
0.00027136
-1.50392e-05
0.000272637
-1.50094e-05
0.000273905
-1.49633e-05
0.000275161
-1.49015e-05
0.000276405
-1.48246e-05
0.000277634
-1.47332e-05
0.000278848
-1.46277e-05
0.000280046
-1.45084e-05
0.000281227
-1.43756e-05
0.000282389
-1.42293e-05
0.000283533
-1.40696e-05
0.000284657
-1.38965e-05
0.00028576
-1.37098e-05
0.000286843
-1.35092e-05
0.000287904
-1.32946e-05
0.000288944
-1.30656e-05
0.000289961
-1.28218e-05
0.000290956