/*--------------------------------*- C++ -*----------------------------------*\
| =========                 |                                                 |
| \\      /  F ield         | OpenFOAM: The Open Source CFD Toolbox           |
|  \\    /   O peration     | Version:  2106                                  |
|   \\  /    A nd           | Website:  www.openfoam.com                      |
|    \\/     M anipulation  |                                                 |
\*---------------------------------------------------------------------------*/
FoamFile
{
    version     2.0;
    format      ascii;
    arch        "LSB;label=32;scalar=64";
    class       volScalarField;
    location    "3.4";
    object      T;
}
// * * * * * * * * * * * * * * * * * * * * * * * * * * * * * * * * * * * * * //

dimensions      [0 0 0 1 0 0 0];

internalField   nonuniform List<scalar> 
12013
(
300.002
300.007
300.013
300.018
300.024
300.03
300.036
300.043
300.05
300.057
300.065
300.073
300.081
300.09
300.1
300.109
300.12
300.13
300.142
300.154
300.166
300.179
300.192
300.207
300.221
300.237
300.253
300.269
300.286
300.304
300.323
300.342
300.362
300.383
300.404
300.427
300.45
300.473
300.498
300.523
300.55
300.577
300.605
300.633
300.663
300.694
300.725
300.758
300.791
300.825
300.861
300.897
300.935
300.973
301.013
301.054
301.096
301.139
301.184
301.23
301.277
301.326
301.376
301.428
301.481
301.536
301.594
301.653
301.714
301.778
301.844
301.913
301.986
302.062
302.142
302.227
302.318
302.417
302.526
302.649
302.796
300.002
300.007
300.013
300.018
300.024
300.03
300.036
300.043
300.05
300.057
300.065
300.073
300.081
300.09
300.1
300.109
300.12
300.13
300.142
300.154
300.166
300.179
300.192
300.207
300.221
300.237
300.253
300.269
300.286
300.304
300.323
300.342
300.362
300.383
300.404
300.427
300.45
300.473
300.498
300.523
300.55
300.577
300.604
300.633
300.663
300.693
300.725
300.757
300.791
300.825
300.861
300.897
300.934
300.973
301.013
301.054
301.096
301.139
301.183
301.229
301.276
301.325
301.375
301.427
301.48
301.536
301.593
301.652
301.713
301.776
301.842
301.911
301.983
302.059
302.138
302.222
302.312
302.408
302.513
302.628
302.754
300.002
300.007
300.013
300.018
300.024
300.03
300.036
300.043
300.05
300.057
300.065
300.073
300.081
300.09
300.099
300.109
300.12
300.13
300.142
300.154
300.166
300.179
300.192
300.207
300.221
300.237
300.252
300.269
300.286
300.304
300.323
300.342
300.362
300.383
300.404
300.427
300.45
300.473
300.498
300.523
300.549
300.576
300.604
300.633
300.663
300.693
300.725
300.757
300.79
300.825
300.86
300.897
300.934
300.973
301.012
301.053
301.095
301.138
301.183
301.228
301.275
301.324
301.374
301.426
301.479
301.534
301.59
301.649
301.71
301.773
301.839
301.907
301.978
302.052
302.13
302.212
302.299
302.391
302.489
302.592
302.7
300.002
300.007
300.013
300.018
300.024
300.03
300.036
300.043
300.05
300.057
300.065
300.073
300.081
300.09
300.099
300.109
300.12
300.13
300.142
300.154
300.166
300.179
300.192
300.206
300.221
300.236
300.252
300.269
300.286
300.304
300.323
300.342
300.362
300.383
300.404
300.426
300.449
300.473
300.498
300.523
300.549
300.576
300.604
300.633
300.662
300.693
300.724
300.757
300.79
300.824
300.86
300.896
300.933
300.972
301.011
301.052
301.094
301.137
301.181
301.227
301.274
301.322
301.372
301.423
301.476
301.531
301.587
301.645
301.705
301.768
301.832
301.9
301.969
302.042
302.118
302.197
302.28
302.366
302.456
302.549
302.642
300.002
300.007
300.013
300.018
300.024
300.03
300.036
300.043
300.05
300.057
300.065
300.073
300.081
300.09
300.099
300.109
300.12
300.13
300.142
300.153
300.166
300.179
300.192
300.206
300.221
300.236
300.252
300.269
300.286
300.304
300.323
300.342
300.362
300.382
300.404
300.426
300.449
300.473
300.497
300.523
300.549
300.576
300.603
300.632
300.662
300.692
300.724
300.756
300.789
300.823
300.859
300.895
300.932
300.97
301.01
301.05
301.092
301.135
301.179
301.224
301.271
301.319
301.369
301.42
301.472
301.526
301.582
301.639
301.699
301.76
301.824
301.889
301.957
302.028
302.101
302.176
302.254
302.335
302.417
302.5
302.583
300.002
300.007
300.013
300.018
300.024
300.03
300.036
300.043
300.05
300.057
300.065
300.073
300.081
300.09
300.099
300.109
300.119
300.13
300.142
300.153
300.166
300.179
300.192
300.206
300.221
300.236
300.252
300.269
300.286
300.304
300.322
300.342
300.361
300.382
300.404
300.426
300.449
300.472
300.497
300.522
300.548
300.575
300.603
300.631
300.661
300.691
300.723
300.755
300.788
300.822
300.857
300.893
300.93
300.969
301.008
301.048
301.09
301.132
301.176
301.221
301.268
301.315
301.364
301.415
301.467
301.52
301.575
301.631
301.69
301.75
301.812
301.876
301.941
302.009
302.079
302.151
302.224
302.299
302.374
302.449
302.523
300.002
300.007
300.013
300.018
300.024
300.03
300.036
300.043
300.05
300.057
300.065
300.073
300.081
300.09
300.099
300.109
300.119
300.13
300.141
300.153
300.166
300.179
300.192
300.206
300.221
300.236
300.252
300.268
300.286
300.303
300.322
300.341
300.361
300.382
300.403
300.425
300.448
300.472
300.496
300.521
300.547
300.574
300.602
300.63
300.66
300.69
300.721
300.753
300.786
300.82
300.855
300.891
300.928
300.966
301.005
301.045
301.087
301.129
301.172
301.217
301.263
301.31
301.358
301.408
301.459
301.512
301.566
301.621
301.678
301.737
301.797
301.859
301.922
301.987
302.053
302.121
302.189
302.258
302.327
302.396
302.463
300.002
300.007
300.013
300.018
300.024
300.03
300.036
300.043
300.049
300.057
300.064
300.073
300.081
300.09
300.099
300.109
300.119
300.13
300.141
300.153
300.165
300.178
300.192
300.206
300.22
300.236
300.252
300.268
300.285
300.303
300.322
300.341
300.361
300.381
300.403
300.425
300.447
300.471
300.495
300.521
300.546
300.573
300.601
300.629
300.659
300.689
300.72
300.752
300.785
300.818
300.853
300.889
300.926
300.963
301.002
301.042
301.083
301.124
301.168
301.212
301.257
301.304
301.351
301.4
301.45
301.502
301.555
301.609
301.664
301.721
301.779
301.838
301.899
301.961
302.023
302.086
302.15
302.214
302.278
302.341
302.402
300.002
300.007
300.013
300.018
300.024
300.03
300.036
300.043
300.049
300.057
300.064
300.072
300.081
300.09
300.099
300.109
300.119
300.13
300.141
300.153
300.165
300.178
300.192
300.206
300.22
300.235
300.251
300.268
300.285
300.303
300.321
300.34
300.36
300.381
300.402
300.424
300.447
300.47
300.494
300.519
300.545
300.572
300.599
300.628
300.657
300.687
300.718
300.749
300.782
300.816
300.85
300.886
300.922
300.959
300.998
301.037
301.078
301.119
301.161
301.205
301.25
301.295
301.342
301.39
301.439
301.49
301.541
301.594
301.647
301.702
301.758
301.815
301.872
301.931
301.99
302.049
302.108
302.168
302.226
302.284
302.341
300.002
300.007
300.013
300.018
300.024
300.03
300.036
300.042
300.049
300.057
300.064
300.072
300.081
300.09
300.099
300.109
300.119
300.13
300.141
300.153
300.165
300.178
300.191
300.205
300.22
300.235
300.251
300.267
300.284
300.302
300.32
300.339
300.359
300.38
300.401
300.423
300.445
300.469
300.493
300.518
300.544
300.57
300.598
300.626
300.655
300.685
300.715
300.747
300.779
300.812
300.847
300.882
300.918
300.955
300.993
301.032
301.071
301.112
301.154
301.197
301.241
301.286
301.331
301.378
301.426
301.475
301.525
301.576
301.627
301.68
301.733
301.787
301.842
301.897
301.953
302.008
302.064
302.119
302.173
302.227
302.279
300.002
300.007
300.013
300.018
300.024
300.03
300.036
300.042
300.049
300.057
300.064
300.072
300.081
300.089
300.099
300.109
300.119
300.129
300.141
300.152
300.165
300.177
300.191
300.205
300.219
300.234
300.25
300.267
300.284
300.301
300.32
300.339
300.358
300.379
300.4
300.422
300.444
300.467
300.492
300.516
300.542
300.568
300.595
300.623
300.652
300.682
300.712
300.743
300.776
300.808
300.842
300.877
300.913
300.949
300.987
301.025
301.064
301.104
301.145
301.187
301.23
301.274
301.319
301.364
301.411
301.458
301.506
301.555
301.605
301.655
301.706
301.757
301.809
301.861
301.913
301.965
302.016
302.067
302.118
302.168
302.216
300.002
300.007
300.013
300.018
300.024
300.03
300.036
300.042
300.049
300.056
300.064
300.072
300.08
300.089
300.099
300.108
300.118
300.129
300.14
300.152
300.164
300.177
300.19
300.204
300.219
300.234
300.25
300.266
300.283
300.3
300.319
300.338
300.357
300.377
300.398
300.42
300.443
300.466
300.49
300.514
300.54
300.566
300.593
300.62
300.649
300.678
300.708
300.739
300.771
300.804
300.837
300.871
300.906
300.942
300.979
301.017
301.055
301.095
301.135
301.176
301.218
301.26
301.304
301.348
301.393
301.438
301.485
301.532
301.579
301.627
301.675
301.724
301.773
301.821
301.87
301.919
301.967
302.014
302.061
302.108
302.153
300.002
300.007
300.012
300.018
300.024
300.029
300.036
300.042
300.049
300.056
300.064
300.072
300.08
300.089
300.098
300.108
300.118
300.129
300.14
300.152
300.164
300.177
300.19
300.204
300.218
300.233
300.249
300.265
300.282
300.299
300.317
300.336
300.356
300.376
300.397
300.418
300.441
300.464
300.487
300.512
300.537
300.563
300.59
300.617
300.645
300.674
300.704
300.735
300.766
300.798
300.831
300.865
300.899
300.934
300.971
301.007
301.045
301.083
301.123
301.163
301.203
301.244
301.287
301.329
301.372
301.416
301.461
301.505
301.551
301.596
301.642
301.688
301.734
301.779
301.825
301.87
301.915
301.96
302.004
302.046
302.089
300.002
300.007
300.012
300.018
300.023
300.029
300.036
300.042
300.049
300.056
300.064
300.072
300.08
300.089
300.098
300.108
300.118
300.128
300.139
300.151
300.163
300.176
300.189
300.203
300.217
300.232
300.248
300.264
300.281
300.298
300.316
300.335
300.354
300.374
300.395
300.416
300.438
300.461
300.485
300.509
300.534
300.559
300.586
300.613
300.641
300.669
300.699
300.729
300.76
300.791
300.824
300.857
300.891
300.925
300.96
300.996
301.033
301.07
301.109
301.147
301.187
301.227
301.267
301.308
301.35
301.392
301.434
301.476
301.519
301.562
301.606
301.649
301.692
301.735
301.778
301.82
301.862
301.903
301.944
301.984
302.024
300.002
300.007
300.012
300.018
300.023
300.029
300.035
300.042
300.049
300.056
300.063
300.071
300.08
300.088
300.098
300.107
300.117
300.128
300.139
300.15
300.163
300.175
300.188
300.202
300.216
300.231
300.247
300.263
300.279
300.297
300.314
300.333
300.352
300.372
300.393
300.414
300.436
300.458
300.481
300.505
300.53
300.555
300.581
300.608
300.636
300.664
300.693
300.722
300.752
300.783
300.815
300.847
300.881
300.914
300.949
300.984
301.019
301.056
301.092
301.13
301.168
301.206
301.245
301.284
301.324
301.364
301.404
301.445
301.486
301.526
301.567
301.608
301.648
301.688
301.728
301.768
301.807
301.846
301.884
301.921
301.958
300.002
300.007
300.012
300.018
300.023
300.029
300.035
300.042
300.049
300.056
300.063
300.071
300.079
300.088
300.097
300.107
300.117
300.127
300.138
300.15
300.162
300.174
300.187
300.201
300.215
300.23
300.245
300.261
300.278
300.295
300.312
300.331
300.35
300.369
300.39
300.411
300.432
300.455
300.478
300.501
300.525
300.55
300.576
300.602
300.629
300.657
300.685
300.714
300.744
300.774
300.805
300.837
300.869
300.902
300.935
300.969
301.004
301.039
301.074
301.11
301.147
301.184
301.221
301.258
301.296
301.334
301.373
301.411
301.449
301.488
301.526
301.564
301.602
301.64
301.677
301.714
301.751
301.787
301.822
301.857
301.891
300.002
300.007
300.012
300.018
300.023
300.029
300.035
300.042
300.048
300.055
300.063
300.071
300.079
300.088
300.097
300.106
300.116
300.127
300.137
300.149
300.161
300.173
300.186
300.2
300.214
300.228
300.243
300.259
300.276
300.293
300.31
300.328
300.347
300.367
300.387
300.407
300.429
300.451
300.473
300.496
300.52
300.545
300.57
300.596
300.622
300.649
300.677
300.705
300.734
300.764
300.794
300.825
300.856
300.888
300.92
300.953
300.986
301.02
301.054
301.089
301.124
301.159
301.194
301.23
301.266
301.302
301.338
301.374
301.41
301.447
301.483
301.518
301.554
301.589
301.624
301.659
301.693
301.726
301.759
301.792
301.824
300.002
300.007
300.012
300.017
300.023
300.029
300.035
300.041
300.048
300.055
300.063
300.07
300.078
300.087
300.096
300.105
300.115
300.126
300.137
300.148
300.16
300.172
300.185
300.198
300.212
300.227
300.242
300.257
300.273
300.29
300.307
300.325
300.344
300.363
300.383
300.403
300.424
300.446
300.468
300.491
300.514
300.538
300.563
300.588
300.614
300.641
300.668
300.695
300.723
300.752
300.781
300.811
300.841
300.872
300.903
300.935
300.967
300.999
301.032
301.065
301.098
301.132
301.165
301.199
301.233
301.267
301.301
301.336
301.37
301.403
301.437
301.471
301.504
301.537
301.569
301.602
301.634
301.665
301.696
301.726
301.756
300.002
300.007
300.012
300.017
300.023
300.029
300.035
300.041
300.048
300.055
300.062
300.07
300.078
300.086
300.095
300.105
300.114
300.125
300.135
300.147
300.158
300.171
300.183
300.196
300.21
300.224
300.239
300.255
300.271
300.287
300.304
300.322
300.34
300.359
300.379
300.399
300.419
300.44
300.462
300.484
300.507
300.531
300.555
300.58
300.605
300.631
300.657
300.684
300.711
300.739
300.767
300.796
300.825
300.854
300.884
300.915
300.945
300.976
301.007
301.039
301.071
301.102
301.134
301.166
301.198
301.231
301.263
301.295
301.327
301.358
301.39
301.421
301.452
301.483
301.513
301.544
301.573
301.602
301.631
301.66
301.687
300.002
300.007
300.012
300.017
300.023
300.028
300.034
300.041
300.047
300.054
300.062
300.069
300.077
300.086
300.095
300.104
300.113
300.124
300.134
300.145
300.157
300.169
300.181
300.194
300.208
300.222
300.237
300.252
300.268
300.284
300.301
300.318
300.336
300.354
300.374
300.393
300.413
300.434
300.455
300.477
300.5
300.522
300.546
300.57
300.594
300.619
300.645
300.671
300.697
300.724
300.751
300.779
300.807
300.835
300.864
300.893
300.922
300.951
300.981
301.011
301.041
301.071
301.101
301.131
301.161
301.192
301.222
301.252
301.282
301.311
301.341
301.37
301.399
301.428
301.456
301.484
301.512
301.539
301.566
301.592
301.618
300.002
300.007
300.012
300.017
300.022
300.028
300.034
300.04
300.047
300.054
300.061
300.069
300.076
300.085
300.094
300.103
300.112
300.122
300.133
300.144
300.155
300.167
300.179
300.192
300.206
300.219
300.234
300.249
300.264
300.28
300.297
300.314
300.331
300.349
300.368
300.387
300.407
300.427
300.448
300.469
300.491
300.513
300.536
300.559
300.582
300.607
300.631
300.656
300.682
300.707
300.733
300.76
300.787
300.814
300.841
300.869
300.896
300.924
300.952
300.981
301.009
301.037
301.066
301.094
301.122
301.151
301.179
301.207
301.235
301.263
301.29
301.318
301.345
301.371
301.398
301.424
301.449
301.475
301.5
301.524
301.549
300.002
300.007
300.012
300.017
300.022
300.028
300.034
300.04
300.046
300.053
300.06
300.068
300.076
300.084
300.092
300.101
300.111
300.121
300.131
300.142
300.153
300.165
300.177
300.19
300.203
300.216
300.23
300.245
300.26
300.276
300.292
300.308
300.326
300.343
300.361
300.38
300.399
300.419
300.439
300.46
300.481
300.502
300.524
300.547
300.569
300.593
300.616
300.64
300.664
300.689
300.714
300.739
300.765
300.791
300.816
300.843
300.869
300.895
300.922
300.948
300.975
301.002
301.028
301.055
301.082
301.108
301.135
301.161
301.187
301.213
301.238
301.264
301.289
301.314
301.338
301.362
301.386
301.41
301.433
301.456
301.479
300.002
300.007
300.012
300.017
300.022
300.027
300.033
300.039
300.046
300.052
300.059
300.067
300.075
300.083
300.091
300.1
300.109
300.119
300.129
300.14
300.151
300.162
300.174
300.187
300.199
300.213
300.226
300.241
300.256
300.271
300.286
300.303
300.319
300.337
300.354
300.372
300.391
300.41
300.429
300.449
300.47
300.49
300.511
300.533
300.555
300.577
300.6
300.623
300.646
300.669
300.693
300.717
300.741
300.766
300.79
300.815
300.84
300.865
300.89
300.915
300.94
300.965
300.99
301.014
301.039
301.064
301.089
301.113
301.137
301.161
301.185
301.209
301.232
301.255
301.278
301.3
301.323
301.344
301.366
301.387
301.408
300.002
300.007
300.011
300.016
300.022
300.027
300.033
300.039
300.045
300.052
300.059
300.066
300.073
300.081
300.09
300.098
300.108
300.117
300.127
300.137
300.148
300.159
300.171
300.183
300.196
300.209
300.222
300.236
300.25
300.265
300.28
300.296
300.312
300.329
300.346
300.364
300.382
300.4
300.419
300.438
300.457
300.477
300.497
300.518
300.539
300.56
300.582
300.604
300.626
300.648
300.67
300.693
300.716
300.739
300.762
300.785
300.809
300.832
300.855
300.879
300.902
300.926
300.949
300.972
300.995
301.018
301.041
301.064
301.086
301.109
301.131
301.153
301.174
301.196
301.217
301.238
301.258
301.279
301.299
301.318
301.338
300.002
300.007
300.011
300.016
300.021
300.027
300.032
300.038
300.044
300.051
300.058
300.065
300.072
300.08
300.088
300.097
300.106
300.115
300.125
300.135
300.145
300.156
300.167
300.179
300.191
300.204
300.217
300.231
300.245
300.259
300.274
300.289
300.305
300.321
300.337
300.354
300.371
300.389
300.407
300.425
300.444
300.463
300.482
300.502
300.522
300.542
300.562
300.583
300.604
300.625
300.646
300.668
300.689
300.711
300.732
300.754
300.776
300.798
300.82
300.842
300.863
300.885
300.907
300.929
300.95
300.971
300.993
301.014
301.034
301.055
301.076
301.096
301.116
301.136
301.155
301.175
301.194
301.212
301.231
301.249
301.267
300.002
300.007
300.011
300.016
300.021
300.026
300.032
300.037
300.043
300.05
300.056
300.063
300.071
300.078
300.086
300.095
300.103
300.112
300.122
300.132
300.142
300.153
300.164
300.175
300.187
300.199
300.212
300.225
300.238
300.252
300.266
300.281
300.296
300.311
300.327
300.343
300.36
300.377
300.394
300.411
300.429
300.447
300.466
300.484
300.503
300.522
300.542
300.561
300.581
300.601
300.62
300.641
300.661
300.681
300.701
300.722
300.742
300.762
300.783
300.803
300.823
300.844
300.864
300.884
300.904
300.923
300.943
300.962
300.982
301.001
301.02
301.039
301.057
301.075
301.093
301.111
301.129
301.146
301.163
301.18
301.197
300.002
300.006
300.011
300.016
300.02
300.026
300.031
300.037
300.042
300.049
300.055
300.062
300.069
300.076
300.084
300.092
300.101
300.11
300.119
300.128
300.138
300.149
300.159
300.17
300.182
300.193
300.206
300.218
300.231
300.244
300.258
300.272
300.287
300.301
300.316
300.332
300.348
300.364
300.38
300.396
300.413
300.43
300.448
300.465
300.483
300.501
300.519
300.538
300.556
300.575
300.593
300.612
300.631
300.65
300.669
300.688
300.707
300.726
300.745
300.763
300.782
300.801
300.82
300.838
300.856
300.875
300.893
300.911
300.928
300.946
300.964
300.981
300.998
301.015
301.031
301.048
301.064
301.08
301.096
301.111
301.126
300.002
300.006
300.011
300.015
300.02
300.025
300.03
300.036
300.041
300.047
300.054
300.06
300.067
300.074
300.082
300.09
300.098
300.106
300.115
300.125
300.134
300.144
300.154
300.165
300.176
300.187
300.199
300.211
300.223
300.236
300.249
300.263
300.276
300.29
300.305
300.319
300.334
300.349
300.365
300.381
300.396
300.413
300.429
300.445
300.462
300.479
300.496
300.513
300.53
300.548
300.565
300.583
300.6
300.618
300.635
300.653
300.67
300.688
300.705
300.723
300.74
300.757
300.775
300.792
300.808
300.825
300.842
300.858
300.875
300.891
300.907
300.923
300.939
300.954
300.969
300.984
300.999
301.014
301.028
301.043
301.057
300.002
300.006
300.01
300.015
300.019
300.024
300.029
300.035
300.04
300.046
300.052
300.059
300.065
300.072
300.079
300.087
300.095
300.103
300.112
300.121
300.13
300.139
300.149
300.159
300.17
300.181
300.192
300.203
300.215
300.227
300.24
300.252
300.265
300.279
300.292
300.306
300.32
300.334
300.349
300.364
300.379
300.394
300.409
300.424
300.44
300.456
300.472
300.488
300.504
300.52
300.536
300.552
300.568
300.585
300.601
300.617
300.633
300.649
300.665
300.681
300.697
300.713
300.729
300.745
300.76
300.776
300.791
300.806
300.821
300.836
300.851
300.865
300.879
300.894
300.908
300.921
300.935
300.948
300.962
300.975
300.988
300.002
300.006
300.01
300.014
300.019
300.023
300.028
300.033
300.039
300.045
300.05
300.057
300.063
300.07
300.077
300.084
300.092
300.099
300.108
300.116
300.125
300.134
300.143
300.153
300.163
300.173
300.184
300.195
300.206
300.218
300.229
300.241
300.254
300.266
300.279
300.292
300.305
300.319
300.332
300.346
300.36
300.374
300.388
300.403
300.417
300.432
300.446
300.461
300.476
300.491
300.506
300.521
300.536
300.551
300.566
300.581
300.595
300.61
300.625
300.64
300.654
300.669
300.683
300.698
300.712
300.726
300.74
300.754
300.767
300.781
300.794
300.808
300.821
300.834
300.846
300.859
300.871
300.884
300.896
300.908
300.919
300.002
300.006
300.01
300.014
300.018
300.023
300.027
300.032
300.037
300.043
300.049
300.054
300.061
300.067
300.074
300.081
300.088
300.095
300.103
300.111
300.12
300.128
300.137
300.147
300.156
300.166
300.176
300.186
300.197
300.207
300.219
300.23
300.241
300.253
300.265
300.277
300.289
300.302
300.315
300.327
300.34
300.353
300.367
300.38
300.393
300.407
300.421
300.434
300.448
300.461
300.475
300.489
300.503
300.516
300.53
300.544
300.557
300.571
300.584
300.598
300.611
300.624
300.638
300.651
300.664
300.677
300.689
300.702
300.714
300.727
300.739
300.751
300.763
300.775
300.786
300.798
300.809
300.82
300.831
300.842
300.853
300.002
300.005
300.009
300.013
300.017
300.022
300.026
300.031
300.036
300.041
300.047
300.052
300.058
300.064
300.071
300.077
300.084
300.091
300.099
300.106
300.114
300.122
300.131
300.14
300.149
300.158
300.167
300.177
300.187
300.197
300.207
300.218
300.228
300.239
300.251
300.262
300.273
300.285
300.297
300.308
300.32
300.333
300.345
300.357
300.369
300.382
300.394
300.407
300.419
300.432
300.444
300.457
300.47
300.482
300.495
300.507
300.519
300.532
300.544
300.556
300.568
300.58
300.592
300.604
300.616
300.628
300.639
300.651
300.662
300.673
300.684
300.695
300.706
300.717
300.727
300.738
300.748
300.758
300.768
300.778
300.788
300.002
300.005
300.009
300.013
300.017
300.021
300.025
300.03
300.034
300.039
300.044
300.05
300.055
300.061
300.067
300.074
300.08
300.087
300.094
300.101
300.109
300.116
300.124
300.132
300.141
300.149
300.158
300.167
300.176
300.186
300.196
300.205
300.215
300.225
300.236
300.246
300.257
300.267
300.278
300.289
300.3
300.311
300.323
300.334
300.345
300.357
300.368
300.379
300.391
300.402
300.414
300.425
300.437
300.448
300.459
300.471
300.482
300.493
300.504
300.515
300.526
300.537
300.548
300.559
300.57
300.58
300.591
300.601
300.611
300.621
300.631
300.641
300.651
300.661
300.67
300.68
300.689
300.698
300.707
300.716
300.725
300.002
300.005
300.008
300.012
300.016
300.02
300.024
300.028
300.033
300.037
300.042
300.047
300.053
300.058
300.064
300.07
300.076
300.082
300.089
300.096
300.103
300.11
300.117
300.125
300.133
300.141
300.149
300.157
300.166
300.175
300.184
300.193
300.202
300.211
300.221
300.231
300.24
300.25
300.26
300.27
300.28
300.29
300.301
300.311
300.321
300.332
300.342
300.352
300.363
300.373
300.384
300.394
300.404
300.415
300.425
300.435
300.445
300.456
300.466
300.476
300.486
300.496
300.505
300.515
300.525
300.534
300.544
300.553
300.562
300.571
300.58
300.589
300.598
300.607
300.615
300.624
300.632
300.64
300.648
300.657
300.664
300.002
300.005
300.008
300.011
300.015
300.019
300.023
300.027
300.031
300.035
300.04
300.045
300.05
300.055
300.06
300.066
300.072
300.078
300.084
300.09
300.097
300.104
300.11
300.118
300.125
300.132
300.14
300.148
300.156
300.164
300.172
300.18
300.189
300.197
300.206
300.215
300.224
300.233
300.242
300.251
300.26
300.27
300.279
300.288
300.298
300.307
300.317
300.326
300.336
300.345
300.354
300.364
300.373
300.383
300.392
300.401
300.41
300.42
300.429
300.438
300.447
300.456
300.464
300.473
300.482
300.49
300.499
300.507
300.516
300.524
300.532
300.54
300.548
300.556
300.563
300.571
300.578
300.586
300.593
300.6
300.607
300.001
300.004
300.008
300.011
300.014
300.018
300.021
300.025
300.029
300.034
300.038
300.042
300.047
300.052
300.057
300.062
300.068
300.073
300.079
300.085
300.091
300.097
300.104
300.11
300.117
300.124
300.131
300.138
300.146
300.153
300.161
300.168
300.176
300.184
300.192
300.2
300.208
300.217
300.225
300.233
300.242
300.25
300.259
300.267
300.276
300.284
300.293
300.301
300.31
300.318
300.327
300.335
300.344
300.352
300.361
300.369
300.377
300.386
300.394
300.402
300.41
300.418
300.426
300.434
300.442
300.449
300.457
300.465
300.472
300.479
300.487
300.494
300.501
300.508
300.515
300.522
300.529
300.535
300.542
300.548
300.555
300.001
300.004
300.007
300.01
300.013
300.017
300.02
300.024
300.028
300.032
300.036
300.04
300.044
300.049
300.054
300.059
300.064
300.069
300.074
300.08
300.086
300.091
300.097
300.103
300.11
300.116
300.123
300.129
300.136
300.143
300.15
300.157
300.164
300.171
300.179
300.186
300.194
300.201
300.209
300.217
300.224
300.232
300.24
300.247
300.255
300.263
300.271
300.278
300.286
300.294
300.302
300.309
300.317
300.325
300.332
300.34
300.347
300.355
300.362
300.37
300.377
300.384
300.391
300.398
300.405
300.412
300.419
300.426
300.433
300.439
300.446
300.452
300.459
300.465
300.471
300.477
300.483
300.489
300.495
300.501
300.507
300.001
300.004
300.007
300.01
300.013
300.016
300.019
300.023
300.026
300.03
300.034
300.038
300.042
300.046
300.051
300.055
300.06
300.065
300.07
300.075
300.081
300.086
300.092
300.097
300.103
300.109
300.115
300.121
300.128
300.134
300.14
300.147
300.154
300.16
300.167
300.174
300.181
300.188
300.195
300.202
300.209
300.216
300.223
300.23
300.237
300.244
300.251
300.258
300.265
300.272
300.279
300.286
300.293
300.3
300.307
300.314
300.321
300.328
300.334
300.341
300.348
300.354
300.361
300.367
300.373
300.38
300.386
300.392
300.398
300.404
300.41
300.416
300.422
300.427
300.433
300.439
300.444
300.45
300.455
300.46
300.465
300.001
300.004
300.006
300.009
300.012
300.015
300.018
300.022
300.025
300.029
300.032
300.036
300.04
300.044
300.048
300.053
300.057
300.062
300.066
300.071
300.076
300.081
300.087
300.092
300.098
300.103
300.109
300.115
300.12
300.126
300.132
300.138
300.145
300.151
300.157
300.163
300.17
300.176
300.183
300.189
300.196
300.202
300.209
300.215
300.222
300.228
300.235
300.241
300.248
300.254
300.261
300.267
300.274
300.28
300.287
300.293
300.299
300.305
300.311
300.318
300.324
300.33
300.336
300.341
300.347
300.353
300.359
300.364
300.37
300.375
300.381
300.386
300.392
300.397
300.402
300.407
300.412
300.417
300.422
300.427
300.431
300.001
300.004
300.006
300.009
300.012
300.015
300.018
300.021
300.024
300.027
300.031
300.035
300.038
300.042
300.046
300.051
300.055
300.059
300.064
300.068
300.073
300.078
300.083
300.088
300.093
300.099
300.104
300.11
300.115
300.121
300.126
300.132
300.138
300.144
300.15
300.156
300.162
300.168
300.174
300.18
300.186
300.192
300.198
300.205
300.211
300.217
300.223
300.229
300.235
300.241
300.247
300.253
300.259
300.265
300.271
300.277
300.283
300.289
300.295
300.3
300.306
300.312
300.317
300.323
300.328
300.334
300.339
300.344
300.349
300.354
300.359
300.365
300.369
300.374
300.379
300.384
300.389
300.393
300.398
300.402
300.407
300.001
300.004
300.006
300.009
300.011
300.014
300.017
300.02
300.024
300.027
300.03
300.034
300.038
300.041
300.045
300.049
300.054
300.058
300.062
300.067
300.071
300.076
300.081
300.086
300.091
300.096
300.101
300.107
300.112
300.118
300.123
300.129
300.134
300.14
300.146
300.152
300.157
300.163
300.169
300.175
300.181
300.187
300.193
300.199
300.205
300.211
300.216
300.222
300.228
300.234
300.24
300.246
300.252
300.257
300.263
300.269
300.274
300.28
300.285
300.291
300.296
300.302
300.307
300.312
300.318
300.323
300.328
300.333
300.338
300.343
300.348
300.353
300.357
300.362
300.367
300.371
300.376
300.38
300.385
300.389
300.393
302.991
303.119
303.196
303.268
303.331
303.382
303.417
303.456
303.496
303.533
303.564
303.597
303.632
303.665
303.699
303.731
303.762
303.789
303.818
303.847
303.875
303.904
303.933
303.961
303.989
304.017
304.044
304.071
304.098
304.124
304.15
304.175
304.2
304.225
304.25
304.274
304.299
304.323
304.346
304.369
304.393
304.415
304.438
304.464
304.488
304.511
304.532
304.555
304.579
304.602
304.624
304.644
304.665
304.687
304.71
304.732
304.755
304.777
304.799
304.819
304.837
304.856
304.876
304.896
304.916
304.936
304.956
304.976
304.995
305.014
305.033
305.051
305.069
305.087
305.104
305.121
305.138
305.155
305.171
305.188
305.208
305.225
305.241
305.256
305.27
305.284
305.299
305.316
305.331
305.344
305.356
305.37
305.386
305.398
305.412
305.427
305.44
305.452
305.465
305.477
305.487
305.499
305.508
305.519
305.531
305.542
305.552
305.56
305.57
305.577
305.586
305.595
305.604
305.613
305.62
305.626
305.632
305.639
305.646
305.651
305.655
305.659
305.664
305.668
305.671
305.673
305.675
305.676
305.677
305.677
305.676
305.674
305.671
305.667
305.662
305.656
305.649
305.641
305.631
305.62
305.608
305.594
305.578
305.56
305.541
305.52
305.496
305.469
305.44
305.405
305.364
305.322
305.28
305.232
305.178
305.117
305.051
304.938
304.835
304.703
304.531
302.89
303.003
303.091
303.166
303.231
303.286
303.331
303.375
303.416
303.455
303.491
303.527
303.562
303.597
303.631
303.664
303.695
303.725
303.755
303.785
303.814
303.844
303.873
303.902
303.931
303.959
303.986
304.014
304.041
304.067
304.094
304.12
304.145
304.171
304.196
304.221
304.245
304.27
304.293
304.317
304.341
304.364
304.388
304.412
304.437
304.46
304.482
304.505
304.529
304.552
304.574
304.595
304.617
304.639
304.662
304.684
304.706
304.729
304.75
304.771
304.79
304.809
304.829
304.85
304.87
304.89
304.91
304.93
304.949
304.968
304.987
305.006
305.024
305.042
305.059
305.077
305.094
305.111
305.127
305.145
305.163
305.181
305.197
305.212
305.227
305.241
305.256
305.273
305.288
305.302
305.314
305.328
305.343
305.357
305.37
305.385
305.398
305.41
305.423
305.435
305.446
305.457
305.468
305.478
305.49
305.501
305.511
305.52
305.529
305.537
305.546
305.555
305.564
305.572
305.58
305.586
305.593
305.599
305.606
305.611
305.615
305.62
305.624
305.628
305.631
305.633
305.635
305.636
305.637
305.637
305.636
305.634
305.632
305.628
305.623
305.617
305.61
305.602
305.592
305.581
305.568
305.554
305.539
305.521
305.502
305.48
305.456
305.429
305.399
305.365
305.324
305.282
305.238
305.189
305.134
305.072
305
304.891
304.782
304.645
304.456
302.808
302.907
302.993
303.068
303.134
303.192
303.243
303.29
303.334
303.375
303.414
303.452
303.489
303.525
303.56
303.594
303.626
303.658
303.689
303.72
303.75
303.78
303.81
303.839
303.868
303.897
303.925
303.953
303.98
304.008
304.034
304.061
304.087
304.113
304.138
304.163
304.188
304.213
304.238
304.262
304.286
304.31
304.334