/*--------------------------------*- C++ -*----------------------------------*\
| =========                 |                                                 |
| \\      /  F ield         | OpenFOAM: The Open Source CFD Toolbox           |
|  \\    /   O peration     | Version:  2106                                  |
|   \\  /    A nd           | Website:  www.openfoam.com                      |
|    \\/     M anipulation  |                                                 |
\*---------------------------------------------------------------------------*/
FoamFile
{
    version     2.0;
    format      ascii;
    arch        "LSB;label=32;scalar=64";
    class       volVectorField;
    location    "3.4";
    object      U;
}
// * * * * * * * * * * * * * * * * * * * * * * * * * * * * * * * * * * * * * //

dimensions      [0 1 -1 0 0 0 0];

internalField   nonuniform List<vector> 
12013
(
(0.100028 -7.80555e-06 0)
(0.100143 -1.44341e-05 0)
(0.100328 -2.05436e-05 0)
(0.100567 -2.6135e-05 0)
(0.100855 -3.13516e-05 0)
(0.101187 -3.62766e-05 0)
(0.101558 -4.09633e-05 0)
(0.101964 -4.54554e-05 0)
(0.102403 -4.97858e-05 0)
(0.102872 -5.39805e-05 0)
(0.103367 -5.80602e-05 0)
(0.103888 -6.20415e-05 0)
(0.104432 -6.59376e-05 0)
(0.104997 -6.97587e-05 0)
(0.105582 -7.35125e-05 0)
(0.106186 -7.72053e-05 0)
(0.106806 -8.08405e-05 0)
(0.107441 -8.44208e-05 0)
(0.108091 -8.79479e-05 0)
(0.108754 -9.14212e-05 0)
(0.109428 -9.48412e-05 0)
(0.110114 -9.82064e-05 0)
(0.110809 -0.000101516 0)
(0.111513 -0.000104768 0)
(0.112225 -0.000107961 0)
(0.112943 -0.000111094 0)
(0.113667 -0.000114166 0)
(0.114397 -0.000117177 0)
(0.11513 -0.000120124 0)
(0.115867 -0.000123007 0)
(0.116606 -0.000125826 0)
(0.117347 -0.000128579 0)
(0.118089 -0.000131263 0)
(0.118832 -0.000133877 0)
(0.119574 -0.000136416 0)
(0.120315 -0.000138877 0)
(0.121054 -0.000141253 0)
(0.121792 -0.000143536 0)
(0.122526 -0.000145718 0)
(0.123257 -0.000147787 0)
(0.123983 -0.000149729 0)
(0.124705 -0.000151531 0)
(0.12542 -0.000153172 0)
(0.126129 -0.000154632 0)
(0.126831 -0.000155887 0)
(0.127524 -0.000156909 0)
(0.128208 -0.000157666 0)
(0.128882 -0.000158122 0)
(0.129544 -0.000158237 0)
(0.130194 -0.000157963 0)
(0.130829 -0.000157247 0)
(0.131449 -0.000156027 0)
(0.132052 -0.000154232 0)
(0.132636 -0.00015178 0)
(0.133199 -0.000148575 0)
(0.133739 -0.000144506 0)
(0.134253 -0.00013944 0)
(0.134739 -0.000133221 0)
(0.135194 -0.00012566 0)
(0.135613 -0.000116532 0)
(0.135994 -0.00010556 0)
(0.13633 -9.2406e-05 0)
(0.136616 -7.66484e-05 0)
(0.136846 -5.77589e-05 0)
(0.137012 -3.50657e-05 0)
(0.137104 -7.70428e-06 0)
(0.137111 2.54665e-05 0)
(0.137018 6.60001e-05 0)
(0.136807 0.00011601 0)
(0.136454 0.000178437 0)
(0.13593 0.000257483 0)
(0.135192 0.000359314 0)
(0.134186 0.00049324 0)
(0.132831 0.000673749 0)
(0.131015 0.000924128 0)
(0.128567 0.00128302 0)
(0.125227 0.00181673 0)
(0.120569 0.00264565 0)
(0.11389 0.004025 0)
(0.104253 0.00669183 0)
(0.09323 0.0140499 0)
(0.100026 -2.38394e-05 0)
(0.10014 -4.42596e-05 0)
(0.100325 -6.30242e-05 0)
(0.100563 -8.01847e-05 0)
(0.100851 -9.61957e-05 0)
(0.101182 -0.000111309 0)
(0.101552 -0.000125691 0)
(0.101958 -0.000139474 0)
(0.102396 -0.00015276 0)
(0.102863 -0.000165629 0)
(0.103358 -0.000178144 0)
(0.103878 -0.000190357 0)
(0.104422 -0.000202307 0)
(0.104986 -0.000214027 0)
(0.10557 -0.00022554 0)
(0.106172 -0.000236864 0)
(0.106791 -0.000248011 0)
(0.107425 -0.000258989 0)
(0.108074 -0.000269803 0)
(0.108736 -0.000280452 0)
(0.109409 -0.000290936 0)
(0.110093 -0.000301251 0)
(0.110787 -0.000311394 0)
(0.11149 -0.00032136 0)
(0.1122 -0.000331146 0)
(0.112917 -0.000340747 0)
(0.11364 -0.00035016 0)
(0.114367 -0.000359382 0)
(0.115099 -0.00036841 0)
(0.115834 -0.000377242 0)
(0.116571 -0.000385874 0)
(0.117311 -0.000394302 0)
(0.118051 -0.000402521 0)
(0.118791 -0.000410521 0)
(0.119531 -0.000418293 0)
(0.12027 -0.000425822 0)
(0.121008 -0.000433091 0)
(0.121743 -0.000440074 0)
(0.122475 -0.000446747 0)
(0.123203 -0.000453072 0)
(0.123927 -0.00045901 0)
(0.124646 -0.000464513 0)
(0.125359 -0.000469525 0)
(0.126065 -0.000473982 0)
(0.126764 -0.000477808 0)
(0.127454 -0.00048092 0)
(0.128136 -0.000483221 0)
(0.128806 -0.000484601 0)
(0.129466 -0.000484933 0)
(0.130112 -0.000484075 0)
(0.130745 -0.000481863 0)
(0.131362 -0.000478109 0)
(0.131962 -0.000472596 0)
(0.132543 -0.000465074 0)
(0.133104 -0.000455251 0)
(0.133641 -0.000442787 0)
(0.134153 -0.000427279 0)
(0.134637 -0.000408251 0)
(0.135089 -0.000385132 0)
(0.135507 -0.000357236 0)
(0.135886 -0.000323727 0)
(0.136222 -0.000283579 0)
(0.136508 -0.000235521 0)
(0.13674 -0.00017796 0)
(0.136909 -0.000108877 0)
(0.137006 -2.56804e-05 0)
(0.137021 7.5025e-05 0)
(0.136939 0.000197804 0)
(0.136746 0.000348845 0)
(0.136418 0.000536692 0)
(0.135931 0.000773408 0)
(0.135248 0.00107644 0)
(0.134324 0.00147162 0)
(0.133099 0.00199823 0)
(0.131489 0.00271739 0)
(0.129383 0.00372617 0)
(0.126631 0.00518057 0)
(0.12303 0.00733199 0)
(0.118335 0.0105856 0)
(0.112571 0.015507 0)
(0.107731 0.0222708 0)
(0.100024 -4.05424e-05 0)
(0.100137 -7.59355e-05 0)
(0.10032 -0.000108254 0)
(0.100557 -0.000137799 0)
(0.100843 -0.000165358 0)
(0.101172 -0.000191367 0)
(0.101541 -0.000216113 0)
(0.101945 -0.000239824 0)
(0.102382 -0.000262678 0)
(0.102848 -0.000284812 0)
(0.103342 -0.000306335 0)
(0.10386 -0.000327336 0)
(0.104401 -0.000347883 0)
(0.104964 -0.00036803 0)
(0.105546 -0.000387821 0)
(0.106146 -0.000407284 0)
(0.106763 -0.000426441 0)
(0.107395 -0.000445306 0)
(0.108041 -0.000463885 0)
(0.1087 -0.00048218 0)
(0.109371 -0.000500187 0)
(0.110053 -0.000517903 0)
(0.110744 -0.00053532 0)
(0.111444 -0.00055243 0)
(0.112151 -0.000569228 0)
(0.112865 -0.000585706 0)
(0.113584 -0.000601857 0)
(0.114309 -0.000617678 0)
(0.115037 -0.000633162 0)
(0.115768 -0.000648306 0)
(0.116502 -0.000663103 0)
(0.117237 -0.000677547 0)
(0.117973 -0.000691626 0)
(0.11871 -0.000705328 0)
(0.119446 -0.000718634 0)
(0.12018 -0.000731519 0)
(0.120913 -0.000743953 0)
(0.121644 -0.000755895 0)
(0.122371 -0.000767297 0)
(0.123094 -0.0007781 0)
(0.123813 -0.000788235 0)
(0.124527 -0.00079762 0)
(0.125235 -0.000806158 0)
(0.125936 -0.000813738 0)
(0.126629 -0.000820235 0)
(0.127314 -0.000825503 0)
(0.12799 -0.000829376 0)
(0.128655 -0.000831667 0)
(0.129308 -0.000832159 0)
(0.129949 -0.000830611 0)
(0.130576 -0.000826741 0)
(0.131187 -0.000820229 0)
(0.131781 -0.000810709 0)
(0.132356 -0.000797754 0)
(0.132911 -0.00078087 0)
(0.133443 -0.00075948 0)
(0.133949 -0.000732906 0)
(0.134428 -0.000700343 0)
(0.134876 -0.000660835 0)
(0.13529 -0.000613229 0)
(0.135666 -0.00055613 0)
(0.136 -0.000487831 0)
(0.136287 -0.000406226 0)
(0.13652 -0.000308687 0)
(0.136694 -0.000191908 0)
(0.136799 -5.16677e-05 0)
(0.136827 0.000117488 0)
(0.136765 0.000322787 0)
(0.136601 0.000573907 0)
(0.136316 0.000883976 0)
(0.135891 0.00127111 0)
(0.1353 0.00176077 0)
(0.134512 0.00238934 0)
(0.133492 0.00320957 0)
(0.132197 0.00429887 0)
(0.130586 0.00577097 0)
(0.128626 0.00779029 0)
(0.126318 0.0105837 0)
(0.123759 0.0144326 0)
(0.121328 0.0195376 0)
(0.12012 0.025308 0)
(0.100022 -5.77811e-05 0)
(0.100133 -0.000109386 0)
(0.100313 -0.00015619 0)
(0.100548 -0.000199002 0)
(0.100832 -0.000238918 0)
(0.101159 -0.000276574 0)
(0.101526 -0.000312392 0)
(0.101928 -0.000346705 0)
(0.102362 -0.00037977 0)
(0.102826 -0.000411788 0)
(0.103317 -0.000442917 0)
(0.103832 -0.000473284 0)
(0.104371 -0.00050299 0)
(0.10493 -0.000532114 0)
(0.105509 -0.000560716 0)
(0.106106 -0.000588841 0)
(0.10672 -0.000616518 0)
(0.107349 -0.000643767 0)
(0.107991 -0.000670598 0)
(0.108647 -0.000697013 0)
(0.109314 -0.000723008 0)
(0.109992 -0.000748576 0)
(0.110678 -0.000773706 0)
(0.111374 -0.000798389 0)
(0.112077 -0.000822613 0)
(0.112786 -0.000846368 0)
(0.1135 -0.000869646 0)
(0.11422 -0.00089244 0)
(0.114943 -0.000914741 0)
(0.115669 -0.000936544 0)
(0.116397 -0.000957838 0)
(0.117126 -0.000978614 0)
(0.117857 -0.000998858 0)
(0.118587 -0.00101855 0)
(0.119316 -0.00103766 0)
(0.120045 -0.00105616 0)
(0.120771 -0.00107399 0)
(0.121494 -0.00109111 0)
(0.122214 -0.00110744 0)
(0.12293 -0.0011229 0)
(0.123642 -0.00113739 0)
(0.124348 -0.00115079 0)
(0.125048 -0.00116295 0)
(0.125741 -0.00117373 0)
(0.126426 -0.00118294 0)
(0.127103 -0.00119038 0)
(0.12777 -0.00119579 0)
(0.128426 -0.00119893 0)
(0.129071 -0.00119947 0)
(0.129703 -0.00119707 0)
(0.130321 -0.00119132 0)
(0.130923 -0.00118179 0)
(0.131509 -0.00116793 0)
(0.132076 -0.00114916 0)
(0.132622 -0.00112476 0)
(0.133146 -0.00109393 0)
(0.133645 -0.0010557 0)
(0.134116 -0.00100897 0)
(0.134558 -0.000952375 0)
(0.134967 -0.000884329 0)
(0.135339 -0.000802898 0)
(0.135671 -0.000705736 0)
(0.135958 -0.000589964 0)
(0.136195 -0.000452021 0)
(0.136376 -0.00028746 0)
(0.136494 -9.06738e-05 0)
(0.136542 0.000145462 0)
(0.136509 0.0004302 0)
(0.136388 0.000775702 0)
(0.136164 0.00119805 0)
(0.135826 0.00171876 0)
(0.135359 0.00236688 0)
(0.13475 0.00318197 0)
(0.133986 0.00421799 0)
(0.133063 0.00554819 0)
(0.131992 0.00726985 0)
(0.130815 0.00950538 0)
(0.129632 0.0123901 0)
(0.128639 0.0160242 0)
(0.128171 0.0203246 0)
(0.128697 0.0246312 0)
(0.10002 -7.55692e-05 0)
(0.100129 -0.000144559 0)
(0.100306 -0.000206816 0)
(0.100538 -0.000263824 0)
(0.100819 -0.000316952 0)
(0.101143 -0.000367049 0)
(0.101506 -0.000414687 0)
(0.101905 -0.000460311 0)
(0.102336 -0.000504263 0)
(0.102797 -0.000546811 0)
(0.103284 -0.000588168 0)
(0.103796 -0.000628502 0)
(0.104331 -0.000667949 0)
(0.104886 -0.000706614 0)
(0.105461 -0.000744576 0)
(0.106054 -0.000781895 0)
(0.106663 -0.000818611 0)
(0.107287 -0.000854749 0)
(0.107925 -0.000890324 0)
(0.108575 -0.000925337 0)
(0.109237 -0.000959782 0)
(0.109909 -0.000993651 0)
(0.110591 -0.00102693 0)
(0.11128 -0.0010596 0)
(0.111977 -0.00109166 0)
(0.11268 -0.00112308 0)
(0.113388 -0.00115386 0)
(0.1141 -0.00118398 0)
(0.114816 -0.00121344 0)
(0.115535 -0.00124223 0)
(0.116256 -0.00127033 0)
(0.116977 -0.00129772 0)
(0.1177 -0.0013244 0)
(0.118422 -0.00135033 0)
(0.119143 -0.00137548 0)
(0.119862 -0.00139981 0)
(0.120579 -0.00142324 0)
(0.121294 -0.00144571 0)
(0.122004 -0.00146712 0)
(0.122711 -0.00148736 0)
(0.123412 -0.0015063 0)
(0.124108 -0.00152379 0)
(0.124798 -0.00153963 0)
(0.12548 -0.00155363 0)
(0.126154 -0.00156554 0)
(0.12682 -0.00157509 0)
(0.127476 -0.00158196 0)
(0.128121 -0.00158581 0)
(0.128755 -0.00158623 0)
(0.129375 -0.00158276 0)
(0.129982 -0.00157489 0)
(0.130573 -0.00156203 0)
(0.131147 -0.0015435 0)
(0.131703 -0.00151851 0)
(0.132239 -0.00148617 0)
(0.132752 -0.00144544 0)
(0.133242 -0.00139509 0)
(0.133705 -0.00133369 0)
(0.134139 -0.00125955 0)
(0.134542 -0.00117067 0)
(0.13491 -0.00106463 0)
(0.135241 -0.000938533 0)
(0.135529 -0.000788845 0)
(0.135772 -0.000611248 0)
(0.135963 -0.000400414 0)
(0.1361 -0.000149729 0)
(0.136175 0.000149033 0)
(0.136182 0.000506275 0)
(0.136116 0.000935328 0)
(0.13597 0.00145327 0)
(0.135739 0.00208204 0)
(0.135419 0.0028499 0)
(0.135011 0.00379307 0)
(0.134522 0.00495746 0)
(0.133972 0.00639981 0)
(0.133401 0.0081867 0)
(0.132879 0.0103878 0)
(0.132523 0.0130562 0)
(0.132504 0.0161824 0)
(0.133037 0.0196014 0)
(0.134299 0.0228418 0)
(0.100018 -9.39182e-05 0)
(0.100124 -0.000181408 0)
(0.100298 -0.000260107 0)
(0.100527 -0.000332269 0)
(0.100803 -0.000399506 0)
(0.101124 -0.000462881 0)
(0.101483 -0.000523124 0)
(0.101878 -0.0005808 0)
(0.102305 -0.000636344 0)
(0.102761 -0.000690097 0)
(0.103244 -0.000742328 0)
(0.103751 -0.000793251 0)
(0.104281 -0.000843039 0)
(0.104832 -0.000891823 0)
(0.105401 -0.000939706 0)
(0.105989 -0.000986761 0)
(0.106592 -0.00103304 0)
(0.10721 -0.00107858 0)
(0.107842 -0.00112339 0)
(0.108486 -0.00116748 0)
(0.109141 -0.00121083 0)
(0.109806 -0.00125345 0)
(0.11048 -0.0012953 0)
(0.111162 -0.00133637 0)
(0.111851 -0.00137665 0)
(0.112546 -0.00141611 0)
(0.113246 -0.00145475 0)
(0.11395 -0.00149253 0)
(0.114657 -0.00152946 0)
(0.115367 -0.00156553 0)
(0.116078 -0.0016007 0)
(0.11679 -0.00163498 0)
(0.117502 -0.00166833 0)
(0.118214 -0.00170071 0)
(0.118925 -0.00173209 0)
(0.119633 -0.00176241 0)
(0.120339 -0.00179159 0)
(0.121042 -0.00181953 0)
(0.121741 -0.00184612 0)
(0.122435 -0.00187121 0)
(0.123124 -0.00189465 0)
(0.123808 -0.00191624 0)
(0.124484 -0.00193575 0)
(0.125154 -0.00195292 0)
(0.125815 -0.00196745 0)
(0.126467 -0.001979 0)
(0.127109 -0.00198719 0)
(0.127741 -0.00199157 0)
(0.128361 -0.00199166 0)
(0.128967 -0.00198688 0)
(0.12956 -0.00197661 0)
(0.130138 -0.00196011 0)
(0.130698 -0.00193656 0)
(0.131241 -0.00190501 0)
(0.131764 -0.00186438 0)
(0.132266 -0.0018134 0)
(0.132745 -0.00175062 0)
(0.133198 -0.00167434 0)
(0.133624 -0.00158255 0)
(0.134021 -0.0014729 0)
(0.134385 -0.00134261 0)
(0.134715 -0.00118833 0)
(0.135007 -0.00100607 0)
(0.135258 -0.000791001 0)
(0.135465 -0.00053726 0)
(0.135625 -0.000237718 0)
(0.135734 0.000116289 0)
(0.135789 0.000535318 0)
(0.135789 0.00103248 0)
(0.135732 0.00162396 0)
(0.13562 0.00232958 0)
(0.135457 0.0031734 0)
(0.135253 0.00418419 0)
(0.135028 0.0053953 0)
(0.134812 0.00684342 0)
(0.134653 0.00856489 0)
(0.134621 0.0105874 0)
(0.134814 0.0129138 0)
(0.135346 0.0154929 0)
(0.136336 0.0181764 0)
(0.137835 0.0206741 0)
(0.100016 -0.00011284 0)
(0.10012 -0.000219891 0)
(0.10029 -0.000316035 0)
(0.100514 -0.000404326 0)
(0.100786 -0.0004866 0)
(0.101102 -0.000564124 0)
(0.101457 -0.000637791 0)
(0.101847 -0.000708293 0)
(0.102268 -0.000776164 0)
(0.102719 -0.00084182 0)
(0.103196 -0.000905593 0)
(0.103698 -0.000967746 0)
(0.104222 -0.00102849 0)
(0.104766 -0.00108798 0)
(0.10533 -0.00114636 0)
(0.10591 -0.0012037 0)
(0.106507 -0.00126008 0)
(0.107118 -0.00131552 0)
(0.107742 -0.00137006 0)
(0.108378 -0.00142369 0)
(0.109025 -0.00147641 0)
(0.109682 -0.0015282 0)
(0.110348 -0.00157904 0)
(0.111021 -0.00162891 0)
(0.1117 -0.00167778 0)
(0.112385 -0.00172563 0)
(0.113075 -0.00177245 0)
(0.113769 -0.0018182 0)
(0.114465 -0.00186289 0)
(0.115164 -0.00190649 0)
(0.115864 -0.00194899 0)
(0.116565 -0.00199035 0)
(0.117265 -0.00203056 0)
(0.117964 -0.00206957 0)
(0.118662 -0.00210732 0)
(0.119358 -0.00214375 0)
(0.12005 -0.00217876 0)
(0.120739 -0.00221223 0)
(0.121424 -0.00224404 0)
(0.122104 -0.002274 0)
(0.122779 -0.00230193 0)
(0.123447 -0.00232757 0)
(0.124109 -0.00235067 0)
(0.124763 -0.00237091 0)
(0.125409 -0.00238793 0)
(0.126045 -0.00240132 0)
(0.126671 -0.00241062 0)
(0.127287 -0.00241532 0)
(0.127891 -0.00241482 0)
(0.128481 -0.00240847 0)
(0.129058 -0.00239551 0)
(0.12962 -0.00237508 0)
(0.130166 -0.00234623 0)
(0.130694 -0.00230786 0)
(0.131203 -0.00225871 0)
(0.131691 -0.00219733 0)
(0.132158 -0.00212207 0)
(0.132601 -0.00203101 0)
(0.133018 -0.00192191 0)
(0.133409 -0.00179216 0)
(0.13377 -0.00163872 0)
(0.134101 -0.00145799 0)
(0.134398 -0.00124572 0)
(0.134661 -0.000996886 0)
(0.134887 -0.000705493 0)
(0.135075 -0.000364429 0)
(0.135224 3.47466e-05 0)
(0.135334 0.000501799 0)
(0.135405 0.00104843 0)
(0.135442 0.00168845 0)
(0.135451 0.00243787 0)
(0.13544 0.00331479 0)
(0.135426 0.00433903 0)
(0.135431 0.00553105 0)
(0.135488 0.00690982 0)
(0.135641 0.0084889 0)
(0.135946 0.0102699 0)
(0.13647 0.0122325 0)
(0.137282 0.01432 0)
(0.138437 0.0164236 0)
(0.139941 0.0183753 0)
(0.100014 -0.000132352 0)
(0.100115 -0.000259981 0)
(0.100281 -0.000374575 0)
(0.1005 -0.000479976 0)
(0.100768 -0.000578235 0)
(0.101078 -0.000670804 0)
(0.101427 -0.000758742 0)
(0.101811 -0.000842871 0)
(0.102227 -0.000923827 0)
(0.102671 -0.00100211 0)
(0.103142 -0.00107811 0)
(0.103637 -0.00115215 0)
(0.104154 -0.00122448 0)
(0.104691 -0.00129528 0)
(0.105247 -0.00136473 0)
(0.105819 -0.00143291 0)
(0.106408 -0.00149991 0)
(0.10701 -0.00156577 0)
(0.107626 -0.00163052 0)
(0.108253 -0.00169416 0)
(0.10889 -0.00175669 0)
(0.109537 -0.00181807 0)
(0.110192 -0.00187829 0)
(0.110855 -0.00193732 0)
(0.111523 -0.00199514 0)
(0.112197 -0.0020517 0)
(0.112875 -0.00210699 0)
(0.113557 -0.00216099 0)
(0.114241 -0.00221369 0)
(0.114927 -0.00226505 0)
(0.115614 -0.00231505 0)
(0.116301 -0.00236368 0)
(0.116987 -0.00241089 0)
(0.117672 -0.00245663 0)
(0.118355 -0.00250084 0)
(0.119036 -0.00254344 0)
(0.119713 -0.00258431 0)
(0.120387 -0.00262333 0)
(0.121055 -0.00266032 0)
(0.121719 -0.0026951 0)
(0.122377 -0.00272742 0)
(0.123028 -0.00275702 0)
(0.123673 -0.00278357 0)
(0.124309 -0.0028067 0)
(0.124937 -0.00282602 0)
(0.125555 -0.00284104 0)
(0.126164 -0.00285123 0)
(0.126761 -0.00285599 0)
(0.127347 -0.00285465 0)
(0.12792 -0.00284645 0)
(0.128479 -0.00283054 0)
(0.129024 -0.00280595 0)
(0.129552 -0.0027716 0)
(0.130064 -0.00272626 0)
(0.130558 -0.00266854 0)
(0.131032 -0.00259685 0)
(0.131487 -0.00250939 0)
(0.131919 -0.00240407 0)
(0.132328 -0.00227853 0)
(0.132713 -0.00213002 0)
(0.133072 -0.00195538 0)
(0.133405 -0.00175094 0)
(0.13371 -0.00151247 0)
(0.133986 -0.00123503 0)
(0.134234 -0.000912925 0)
(0.134454 -0.000539564 0)
(0.134646 -0.000107374 0)
(0.134812 0.000392082 0)
(0.134957 0.000968184 0)
(0.135086 0.00163155 0)
(0.135208 0.00239365 0)
(0.135335 0.00326635 0)
(0.135483 0.00426113 0)
(0.135676 0.00538779 0)
(0.13594 0.00665243 0)
(0.13631 0.00805455 0)
(0.136826 0.00958299 0)
(0.137529 0.0112109 0)
(0.138457 0.0128902 0)
(0.139631 0.0145481 0)
(0.141042 0.0160896 0)
(0.100011 -0.000152478 0)
(0.100111 -0.000301655 0)
(0.100273 -0.000435703 0)
(0.100486 -0.000559192 0)
(0.100748 -0.000674393 0)
(0.101052 -0.00078292 0)
(0.101395 -0.000885995 0)
(0.101772 -0.000984572 0)
(0.102181 -0.00107939 0)
(0.102618 -0.00117104 0)
(0.103081 -0.00125997 0)
(0.103568 -0.00134656 0)
(0.104077 -0.00143111 0)
(0.104606 -0.00151384 0)
(0.105153 -0.00159493 0)
(0.105716 -0.0016745 0)
(0.106295 -0.00175265 0)
(0.106887 -0.00182943 0)
(0.107493 -0.00190487 0)
(0.108109 -0.00197897 0)
(0.108736 -0.00205172 0)
(0.109371 -0.0021231 0)
(0.110015 -0.00219307 0)
(0.110665 -0.00226161 0)
(0.111321 -0.00232868 0)
(0.111982 -0.00239425 0)
(0.112647 -0.00245828 0)
(0.113315 -0.00252076 0)
(0.113985 -0.00258166 0)
(0.114656 -0.00264095 0)
(0.115328 -0.00269861 0)
(0.115999 -0.00275461 0)
(0.11667 -0.00280891 0)
(0.117339 -0.00286144 0)
(0.118005 -0.00291214 0)
(0.118669 -0.0029609 0)
(0.119329 -0.00300761 0)
(0.119984 -0.0030521 0)
(0.120635 -0.0030942 0)
(0.12128 -0.00313366 0)
(0.121919 -0.00317024 0)
(0.122552 -0.00320361 0)
(0.123176 -0.00323341 0)
(0.123793 -0.00325923 0)
(0.124401 -0.0032806 0)
(0.125 -0.00329699 0)
(0.125589 -0.0033078 0)
(0.126166 -0.00331236 0)
(0.126732 -0.00330991 0)
(0.127285 -0.00329963 0)
(0.127826 -0.00328056 0)
(0.128351 -0.00325165 0)
(0.128862 -0.00321172 0)
(0.129357 -0.00315945 0)
(0.129835 -0.00309335 0)
(0.130294 -0.00301174 0)
(0.130736 -0.00291273 0)
(0.131157 -0.00279417 0)
(0.131558 -0.00265365 0)
(0.131938 -0.00248841 0)
(0.132296 -0.00229535 0)
(0.132632 -0.00207092 0)
(0.132946 -0.00181115 0)
(0.133239 -0.0015115 0)
(0.13351 -0.0011669 0)
(0.133762 -0.000771694 0)
(0.133997 -0.000319622 0)
(0.134219 0.000196113 0)
(0.134433 0.000782218 0)
(0.134646 0.00144587 0)
(0.134867 0.00219417 0)
(0.13511 0.00303351 0)
(0.135388 0.00396881 0)
(0.135721 0.00500235 0)
(0.13613 0.00613239 0)
(0.13664 0.0073514 0)
(0.137275 0.00864402 0)
(0.138059 0.00998515 0)
(0.139009 0.0113386 0)
(0.140133 0.0126576 0)
(0.141416 0.0138889 0)
(0.100009 -0.000173243 0)
(0.100107 -0.000344898 0)
(0.100264 -0.000499392 0)
(0.100472 -0.000641937 0)
(0.100727 -0.000775037 0)
(0.101025 -0.000900443 0)
(0.10136 -0.00101953 0)
(0.10173 -0.00113339 0)
(0.102131 -0.00124286 0)
(0.10256 -0.00134862 0)
(0.103014 -0.0014512 0)
(0.103492 -0.00155102 0)
(0.103992 -0.00164843 0)
(0.104511 -0.00174369 0)
(0.105047 -0.001837 0)
(0.105601 -0.00192851 0)
(0.106168 -0.00201832 0)
(0.10675 -0.00210651 0)
(0.107343 -0.00219309 0)
(0.107948 -0.00227808 0)
(0.108562 -0.00236146 0)
(0.109184 -0.0024432 0)
(0.109814 -0.00252327 0)
(0.110451 -0.00260163 0)
(0.111093 -0.00267824 0)
(0.111739 -0.00275306 0)
(0.112389 -0.00282605 0)
(0.113041 -0.0028972 0)
(0.113695 -0.00296646 0)
(0.11435 -0.00303381 0)
(0.115005 -0.00309921 0)
(0.11566 -0.00316265 0)
(0.116313 -0.00322405 0)
(0.116963 -0.00328337 0)
(0.117611 -0.00334051 0)
(0.118256 -0.00339537 0)
(0.118897 -0.0034478 0)
(0.119533 -0.00349764 0)
(0.120163 -0.00354467 0)
(0.120788 -0.00358865 0)
(0.121407 -0.00362926 0)
(0.122018 -0.00366617 0)
(0.122622 -0.00369897 0)
(0.123217 -0.00372721 0)
(0.123804 -0.00375035 0)
(0.124381 -0.00376783 0)
(0.124948 -0.00377898 0)
(0.125504 -0.00378307 0)
(0.126049 -0.00377929 0)
(0.126581 -0.00376672 0)
(0.127101 -0.00374437 0)
(0.127607 -0.0037111 0)
(0.128099 -0.00366569 0)
(0.128575 -0.00360674 0)
(0.129037 -0.00353271 0)
(0.129481 -0.00344191 0)
(0.12991 -0.00333242 0)
(0.13032 -0.00320212 0)
(0.130714 -0.00304866 0)
(0.131089 -0.00286941 0)
(0.131447 -0.00266147 0)
(0.131787 -0.00242161 0)
(0.132111 -0.00214629 0)
(0.132419 -0.00183164 0)
(0.132713 -0.00147346 0)
(0.132997 -0.00106726 0)
(0.133272 -0.000608333 0)
(0.133544 -9.17695e-05 0)
(0.133819 0.000486991 0)
(0.134104 0.00113172 0)
(0.134407 0.00184585 0)
(0.134739 0.00263164 0)
(0.135114 0.00348946 0)
(0.135544 0.00441713 0)
(0.136046 0.005409 0)
(0.136634 0.00645515 0)
(0.137324 0.00754061 0)
(0.138128 0.00864497 0)
(0.139052 0.00974257 0)
(0.140095 0.0108039 0)
(0.141247 0.0117988 0)
(0.100006 -0.000194665 0)
(0.100102 -0.000389688 0)
(0.100255 -0.000565606 0)
(0.100457 -0.000728163 0)
(0.100706 -0.000880105 0)
(0.100996 -0.00102331 0)
(0.101323 -0.00115929 0)
(0.101685 -0.00128926 0)
(0.102076 -0.00141418 0)
(0.102496 -0.00153481 0)
(0.102941 -0.00165174 0)
(0.103409 -0.00176546 0)
(0.103898 -0.00187637 0)
(0.104406 -0.00198476 0)
(0.104932 -0.00209086 0)
(0.105473 -0.00219484 0)
(0.106029 -0.00229683 0)
(0.106597 -0.00239688 0)
(0.107178 -0.00249505 0)
(0.107769 -0.00259133 0)
(0.108369 -0.00268571 0)
(0.108977 -0.00277815 0)
(0.109592 -0.00286863 0)
(0.110213 -0.00295708 0)
(0.110839 -0.00304347 0)
(0.111469 -0.00312774 0)
(0.112102 -0.00320987 0)
(0.112737 -0.00328981 0)
(0.113374 -0.00336753 0)
(0.114011 -0.003443 0)
(0.114647 -0.00351618 0)
(0.115282 -0.00358704 0)
(0.115916 -0.00365551 0)
(0.116547 -0.00372154 0)
(0.117174 -0.00378501 0)
(0.117798 -0.00384582 0)
(0.118418 -0.00390382 0)
(0.119032 -0.0039588 0)
(0.119641 -0.00401055 0)
(0.120244 -0.00405877 0)
(0.12084 -0.00410315 0)
(0.121428 -0.00414331 0)
(0.122009 -0.0041788 0)
(0.122582 -0.00420914 0)
(0.123145 -0.00423376 0)
(0.123699 -0.00425202 0)
(0.124243 -0.00426324 0)
(0.124777 -0.00426662 0)
(0.125299 -0.00426131 0)
(0.125809 -0.00424635 0)
(0.126308 -0.0042207 0)
(0.126793 -0.0041832 0)
(0.127265 -0.00413257 0)
(0.127723 -0.00406743 0)
(0.128167 -0.00398624 0)
(0.128597 -0.00388733 0)
(0.129012 -0.00376885 0)
(0.129412 -0.0036288 0)
(0.129798 -0.00346498 0)
(0.130169 -0.00327501 0)
(0.130527 -0.00305631 0)
(0.130871 -0.00280613 0)
(0.131204 -0.00252153 0)
(0.131527 -0.00219941 0)
(0.131843 -0.00183659 0)
(0.132154 -0.00142983 0)
(0.132464 -0.000975967 0)
(0.132779 -0.000471964 0)
(0.133104 8.49682e-05 0)
(0.133445 0.000696213 0)
(0.133809 0.00136223 0)
(0.134206 0.00208247 0)
(0.134645 0.00285468 0)
(0.135136 0.00367447 0)
(0.135688 0.00453493 0)
(0.136312 0.0054263 0)
(0.137014 0.00633593 0)
(0.137801 0.00724836 0)
(0.138673 0.008146 0)
(0.139627 0.00901034 0)
(0.140655 0.00982407 0)
(0.100004 -0.000216756 0)
(0.100098 -0.000435999 0)
(0.100245 -0.000634293 0)
(0.100442 -0.000817796 0)
(0.100683 -0.000989506 0)
(0.100965 -0.00115141 0)
(0.101284 -0.00130515 0)
(0.101636 -0.00145207 0)
(0.102018 -0.00159323 0)
(0.102428 -0.00172946 0)
(0.102862 -0.00186145 0)
(0.103319 -0.00198975 0)
(0.103796 -0.00211478 0)
(0.104292 -0.00223688 0)
(0.104805 -0.00235632 0)
(0.105333 -0.00247329 0)
(0.105875 -0.00258792 0)
(0.10643 -0.00270029 0)
(0.106996 -0.00281044 0)
(0.107572 -0.00291839 0)
(0.108156 -0.0030241 0)
(0.108748 -0.00312755 0)
(0.109347 -0.00322869 0)
(0.109951 -0.00332746 0)
(0.11056 -0.00342381 0)
(0.111172 -0.0035177 0)
(0.111786 -0.00360907 0)
(0.112402 -0.00369788 0)
(0.113019 -0.0037841 0)
(0.113636 -0.00386769 0)
(0.114252 -0.00394861 0)
(0.114867 -0.00402681 0)
(0.115479 -0.00410224 0)
(0.116088 -0.00417483 0)
(0.116694 -0.00424446 0)
(0.117295 -0.00431101 0)
(0.117892 -0.00437431 0)
(0.118483 -0.00443417 0)
(0.119069 -0.00449033 0)
(0.119647 -0.00454249 0)
(0.120219 -0.00459031 0)
(0.120784 -0.00463337 0)
(0.12134 -0.00467121 0)
(0.121888 -0.00470331 0)
(0.122427 -0.00472907 0)
(0.122957 -0.00474783 0)
(0.123477 -0.00475886 0)
(0.123986 -0.00476134 0)
(0.124485 -0.00475438 0)
(0.124972 -0.00473702 0)
(0.125448 -0.00470819 0)
(0.125912 -0.00466673 0)
(0.126364 -0.00461139 0)
(0.126803 -0.00454081 0)
(0.12723 -0.00445351 0)
(0.127644 -0.00434792 0)
(0.128046 -0.00422232 0)
(0.128436 -0.0040749 0)
(0.128813 -0.00390372 0)
(0.12918 -0.00370673 0)
(0.129537 -0.00348178 0)
(0.129884 -0.00322665 0)
(0.130225 -0.00293909 0)
(0.13056 -0.00261684 0)
(0.130893 -0.00225771 0)
(0.131227 -0.00185967 0)
(0.131565 -0.00142095 0)
(0.131913 -0.000940101 0)
(0.132274 -0.000416099 0)
(0.132655 0.000151602 0)
(0.133061 0.000761434 0)
(0.133499 0.00141093 0)
(0.133976 0.00209659 0)
(0.134497 0.00281336 0)
(0.135069 0.00355454 0)
(0.135697 0.00431172 0)
(0.136385 0.00507495 0)
(0.137133 0.00583302 0)
(0.137942 0.00657407 0)
(0.138808 0.00728644 0)
(0.139722 0.00796007 0)
(0.100001 -0.000239516 0)
(0.100093 -0.000483791 0)
(0.100236 -0.000705377 0)
(0.100426 -0.000910734 0)
(0.100659 -0.00110311 0)
(0.100933 -0.0012846 0)
(0.101243 -0.00145695 0)
(0.101585 -0.00162162 0)
(0.101956 -0.00177978 0)
(0.102355 -0.00193235 0)
(0.102777 -0.00208009 0)
(0.103221 -0.0022236 0)
(0.103686 -0.00236336 0)
(0.104168 -0.00249974 0)
(0.104667 -0.00263305 0)
(0.105181 -0.00276348 0)
(0.105708 -0.0028912 0)
(0.106247 -0.00301629 0)
(0.106797 -0.0031388 0)
(0.107356 -0.00325873 0)
(0.107924 -0.00337607 0)
(0.108498 -0.00349077 0)
(0.109079 -0.00360278 0)
(0.109664 -0.00371204 0)
(0.110254 -0.00381849 0)
(0.110846 -0.00392207 0)
(0.11144 -0.00402273 0)
(0.112036 -0.00412043 0)
(0.112632 -0.00421511 0)
(0.113227 -0.00430675 0)
(0.113821 -0.00439529 0)
(0.114413 -0.0044807 0)
(0.115002 -0.0045629 0)
(0.115588 -0.00464182 0)
(0.11617 -0.00471735 0)
(0.116747 -0.00478935 0)
(0.117319 -0.00485765 0)
(0.117885 -0.00492204 0)
(0.118445 -0.00498225 0)
(0.118999 -0.00503797 0)
(0.119545 -0.00508884 0)
(0.120084 -0.00513442 0)
(0.120614 -0.00517424 0)
(0.121137 -0.00520775 0)
(0.12165 -0.00523433 0)
(0.122154 -0.0052533 0)
(0.122648 -0.00526392 0)
(0.123133 -0.00526536 0)
(0.123607 -0.00525674 0)
(0.124071 -0.00523708 0)
(0.124523 -0.00520533 0)
(0.124966 -0.00516039 0)
(0.125397 -0.00510104 0)
(0.125817 -0.00502601 0)
(0.126226 -0.00493394 0)
(0.126624 -0.00482338 0)
(0.127013 -0.00469284 0)
(0.127391 -0.00454074 0)
(0.12776 -0.00436545 0)
(0.128122 -0.00416533 0)
(0.128476 -0.00393869 0)
(0.128825 -0.0036839 0)
(0.129171 -0.00339937 0)
(0.129515 -0.00308365 0)
(0.12986 -0.00273545 0)
(0.13021 -0.00235376 0)
(0.130567 -0.00193792 0)
(0.130936 -0.00148771 0)
(0.131321 -0.0010034 0)
(0.131725 -0.000485764 0)
(0.132155 6.39698e-05 0)
(0.132614 0.000642548 0)
(0.133106 0.0012455 0)
(0.133635 0.00186795 0)
(0.134204 0.00250409 0)
(0.134816 0.00314718 0)
(0.135472 0.00378975 0)
(0.136171 0.00442386 0)
(0.136913 0.00504157 0)
(0.137694 0.0056355 0)
(0.138507 0.00619973 0)
(0.099998 -0.000262931 0)
(0.100088 -0.000533002 0)
(0.100227 -0.00077875 0)
(0.100409 -0.00100683 0)
(0.100635 -0.00122073 0)
(0.100899 -0.00142264 0)
(0.101199 -0.00161442 0)
(0.10153 -0.00179762 0)
(0.10189 -0.00197352 0)
(0.102276 -0.00214314 0)
(0.102686 -0.00230728 0)
(0.103117 -0.00246661 0)
(0.103567 -0.00262166 0)
(0.104035 -0.00277285 0)
(0.104518 -0.00292051 0)
(0.105016 -0.00306486 0)
(0.105527 -0.00320606 0)
(0.106049 -0.00334423 0)
(0.106581 -0.00347941 0)
(0.107122 -0.00361161 0)
(0.107671 -0.0037408 0)
(0.108226 -0.00386695 0)
(0.108787 -0.00398998 0)
(0.109352 -0.00410983 0)
(0.109921 -0.00422644 0)
(0.110492 -0.00433973 0)
(0.111064 -0.00444966 0)
(0.111637 -0.00455617 0)
(0.11221 -0.00465921 0)
(0.112782 -0.00475874 0)
(0.113352 -0.00485472 0)
(0.11392 -0.00494709 0)
(0.114484 -0.00503579 0)
(0.115045 -0.00512075 0)
(0.115601 -0.00520184 0)
(0.116152 -0.00527893 0)
(0.116698 -0.00535184 0)
(0.117238 -0.00542035 0)
(0.117771 -0.00548419 0)
(0.118298 -0.00554305 0)
(0.118817 -0.00559654 0)
(0.119329 -0.00564423 0)
(0.119832 -0.00568563 0)
(0.120327 -0.00572019 0)
(0.120813 -0.00574727 0)
(0.121291 -0.00576621 0)
(0.121759 -0.00577626 0)
(0.122217 -0.0057766 0)
(0.122666 -0.00576638 0)
(0.123105 -0.00574464 0)
(0.123535 -0.00571041 0)
(0.123954 -0.00566262 0)
(0.124364 -0.00560017 0)
(0.124764 -0.0055219 0)
(0.125155 -0.00542659 0)
(0.125538 -0.005313 0)
(0.125912 -0.00517988 0)
(0.126278 -0.00502592 0)
(0.126638 -0.00484986 0)
(0.126992 -0.00465044 0)
(0.127342 -0.00442648 0)
(0.12769 -0.00417688 0)
(0.128037 -0.00390068 0)
(0.128385 -0.00359711 0)
(0.128737 -0.00326564 0)
(0.129095 -0.00290604 0)
(0.129463 -0.00251846 0)
(0.129843 -0.00210348 0)
(0.130238 -0.00166217 0)
(0.130652 -0.00119609 0)
(0.131088 -0.000707215 0)
(0.13155 -0.000197837 0)
(0.13204 0.000328741 0)
(0.132559 0.00086734 0)
(0.13311 0.00141288 0)
(0.133692 0.00196014 0)
(0.134307 0.00250367 0)
(0.134952 0.003038 0)
(0.135627 0.0035578 0)
(0.136327 0.00405837 0)
(0.13705 0.00453623 0)
(0.0999948 -0.000286971 0)
(0.100083 -0.000583546 0)
(0.100217 -0.000854265 0)
(0.100392 -0.00110588 0)
(0.100609 -0.00134211 0)
(0.100864 -0.00156524 0)
(0.101153 -0.00177721 0)
(0.101473 -0.00197968 0)
(0.10182 -0.00217402 0)
(0.102193 -0.00236132 0)
(0.102588 -0.00254247 0)
(0.103005 -0.00271819 0)
(0.103439 -0.00288907 0)
(0.103891 -0.00305554 0)
(0.104358 -0.00321798 0)
(0.104838 -0.00337662 0)
(0.105331 -0.00353166 0)
(0.105835 -0.00368321 0)
(0.106348 -0.00383131 0)
(0.106869 -0.00397598 0)
(0.107397 -0.00411719 0)
(0.107932 -0.00425489 0)
(0.108471 -0.00438902 0)
(0.109014 -0.00451949 0)
(0.10956 -0.00464624 0)
(0.110107 -0.00476919 0)
(0.110656 -0.00488828 0)
(0.111205 -0.00500345 0)
(0.111753 -0.00511465 0)
(0.1123 -0.00522184 0)
(0.112844 -0.00532497 0)
(0.113386 -0.005424 0)
(0.113924 -0.00551885 0)