/*--------------------------------*- C++ -*----------------------------------*\
| =========                 |                                                 |
| \\      /  F ield         | OpenFOAM: The Open Source CFD Toolbox           |
|  \\    /   O peration     | Version:  2106                                  |
|   \\  /    A nd           | Website:  www.openfoam.com                      |
|    \\/     M anipulation  |                                                 |
\*---------------------------------------------------------------------------*/
FoamFile
{
    version     2.0;
    format      ascii;
    arch        "LSB;label=32;scalar=64";
    class       surfaceScalarField;
    location    "0.4";
    object      phi;
}
// * * * * * * * * * * * * * * * * * * * * * * * * * * * * * * * * * * * * * //

dimensions      [1 0 -1 0 0 0 0];

oriented        oriented;

internalField   nonuniform List<scalar> 
23692
(
9.30368e-05
4.27112e-08
9.29226e-05
1.14286e-07
9.27403e-05
1.82304e-07
9.25243e-05
2.15918e-07
9.23112e-05
2.13097e-07
9.21204e-05
1.90849e-07
9.19534e-05
1.66956e-07
9.18028e-05
1.50633e-07
9.16597e-05
1.4307e-07
9.15181e-05
1.41647e-07
9.13748e-05
1.43293e-07
9.12289e-05
1.45879e-07
9.10806e-05
1.48321e-07
9.09304e-05
1.50257e-07
9.07787e-05
1.51667e-07
9.0626e-05
1.52669e-07
9.04726e-05
1.534e-07
9.03186e-05
1.53974e-07
9.01642e-05
1.54478e-07
9.00092e-05
1.54977e-07
8.98537e-05
1.55517e-07
8.96975e-05
1.56132e-07
8.95407e-05
1.56852e-07
8.9383e-05
1.57691e-07
8.92243e-05
1.58669e-07
8.90645e-05
1.5979e-07
8.89035e-05
1.6106e-07
8.8741e-05
1.62476e-07
8.85769e-05
1.64035e-07
8.84112e-05
1.65728e-07
8.82437e-05
1.67541e-07
8.80742e-05
1.69467e-07
8.79027e-05
1.71492e-07
8.77291e-05
1.73607e-07
8.75533e-05
1.75802e-07
8.73752e-05
1.78073e-07
8.71948e-05
1.80414e-07
8.7012e-05
1.82824e-07
8.68266e-05
1.85307e-07
8.66388e-05
1.87866e-07
8.64483e-05
1.90514e-07
8.6255e-05
1.93261e-07
8.60589e-05
1.96124e-07
8.58597e-05
1.99123e-07
8.56575e-05
2.02281e-07
8.54518e-05
2.05628e-07
8.52426e-05
2.09197e-07
8.50296e-05
2.13024e-07
8.48124e-05
2.17159e-07
8.45908e-05
2.21655e-07
8.43642e-05
2.26573e-07
8.41322e-05
2.31989e-07
8.38942e-05
2.37987e-07
8.36496e-05
2.4467e-07
8.33974e-05
2.52157e-07
8.31368e-05
2.60594e-07
8.28666e-05
2.7015e-07
8.25856e-05
2.81035e-07
8.22921e-05
2.93501e-07
8.19842e-05
3.07856e-07
8.16598e-05
3.24484e-07
8.13159e-05
3.43863e-07
8.09493e-05
3.66593e-07
8.05559e-05
3.93443e-07
8.01304e-05
4.25401e-07
7.96667e-05
4.63756e-07
7.91565e-05
5.10214e-07
7.85894e-05
5.67061e-07
7.7952e-05
6.37413e-07
7.72264e-05
7.25584e-07
7.63888e-05
8.37645e-07
7.54065e-05
9.82297e-07
7.42342e-05
1.17222e-06
7.2808e-05
1.42623e-06
7.10354e-05
1.77264e-06
6.87807e-05
2.25468e-06
6.5842e-05
2.9387e-06
6.19144e-05
3.92756e-06
5.65224e-05
5.392e-06
4.88751e-05
7.64728e-06
1.15288e-05
3.73463e-05
9.95556e-05
8.64459e-08
9.94355e-05
2.3438e-07
9.92428e-05
3.75067e-07
9.90135e-05
4.45149e-07
9.87865e-05
4.40141e-07
9.85825e-05
3.94831e-07
9.84036e-05
3.4582e-07
9.82421e-05
3.12187e-07
9.80887e-05
2.96478e-07
9.79369e-05
2.93391e-07
9.77836e-05
2.9664e-07
9.76276e-05
3.01847e-07
9.74692e-05
3.068e-07
9.73087e-05
3.10727e-07
9.71468e-05
3.136e-07
9.69838e-05
3.15647e-07
9.682e-05
3.17144e-07
9.66557e-05
3.18324e-07
9.64908e-05
3.19366e-07
9.63254e-05
3.20402e-07
9.61594e-05
3.21526e-07
9.59927e-05
3.22808e-07
9.58252e-05
3.24302e-07
9.56569e-05
3.26049e-07
9.54875e-05
3.28077e-07
9.53168e-05
3.30403e-07
9.51449e-05
3.33034e-07
9.49714e-05
3.35968e-07
9.47962e-05
3.39194e-07
9.46192e-05
3.42692e-07
9.44403e-05
3.46443e-07
9.42594e-05
3.50423e-07
9.40763e-05
3.54609e-07
9.38909e-05
3.58976e-07
9.37032e-05
3.63509e-07
9.3513e-05
3.68195e-07
9.33204e-05
3.73025e-07
9.31253e-05
3.77998e-07
9.29274e-05
3.83117e-07
9.27269e-05
3.88397e-07
9.25236e-05
3.93855e-07
9.23173e-05
3.99518e-07
9.2108e-05
4.05418e-07
9.18955e-05
4.11596e-07
9.16797e-05
4.181e-07
9.14603e-05
4.24989e-07
9.12372e-05
4.32332e-07
9.101e-05
4.40209e-07
9.07784e-05
4.48713e-07
9.05421e-05
4.57955e-07
9.03007e-05
4.68062e-07
9.00535e-05
4.79184e-07
8.97999e-05
4.91496e-07
8.95394e-05
5.05207e-07
8.9271e-05
5.2056e-07
8.89937e-05
5.37846e-07
8.87065e-05
5.57413e-07
8.84078e-05
5.79681e-07
8.80962e-05
6.05159e-07
8.77696e-05
6.34468e-07
8.74257e-05
6.68375e-07
8.70617e-05
7.07834e-07
8.66742e-05
7.54042e-07
8.62592e-05
8.08518e-07
8.58113e-05
8.73207e-07
8.53245e-05
9.5063e-07
8.47906e-05
1.04409e-06
8.41997e-05
1.15799e-06
8.35388e-05
1.29824e-06
8.27915e-05
1.47293e-06
8.19359e-05
1.69322e-06
8.09434e-05
1.97482e-06
7.97756e-05
2.33998e-06
7.83813e-05
2.82051e-06
7.66918e-05
3.46212e-06
7.46166e-05
4.32989e-06
7.20415e-05
5.51379e-06
6.88383e-05
7.13079e-06
6.49108e-05
9.31947e-06
6.03856e-05
1.21725e-05
1.52822e-05
5.66323e-05
0.000106532
1.30223e-07
0.000106408
3.57971e-07
0.000106208
5.75289e-07
0.000105968
6.85451e-07
0.000105728
6.80311e-07
0.00010551
6.12426e-07
0.000105318
5.37832e-07
0.000105144
4.86089e-07
0.000104979
4.61513e-07
0.000104816
4.56245e-07
0.000104652
4.60778e-07
0.000104486
4.68444e-07
0.000104317
4.75819e-07
0.000104146
4.81713e-07
0.000103973
4.8604e-07
0.0001038
4.89142e-07
0.000103625
4.91424e-07
0.000103451
4.93241e-07
0.000103275
4.94861e-07
0.000103099
4.96478e-07
0.000102922
4.98239e-07
0.000102745
5.00251e-07
0.000102566
5.02594e-07
0.000102387
5.05327e-07
0.000102207
5.08495e-07
0.000102025
5.12123e-07
0.000101842
5.1622e-07
0.000101657
5.20781e-07
0.00010147
5.2579e-07
0.000101282
5.31218e-07
0.000101091
5.37032e-07
0.000100899
5.43196e-07
0.000100703
5.49671e-07
0.000100506
5.56428e-07
0.000100306
5.63437e-07
0.000100104
5.70677e-07
9.98985e-05
5.78136e-07
9.96907e-05
5.85814e-07
9.94801e-05
5.93717e-07
9.92666e-05
6.01862e-07
9.90502e-05
6.10279e-07
9.88307e-05
6.19009e-07
9.8608e-05
6.281e-07
9.8382e-05
6.37616e-07
9.81524e-05
6.4763e-07
9.79192e-05
6.58232e-07
9.7682e-05
6.69524e-07
9.74406e-05
6.81632e-07
9.71946e-05
6.94696e-07
9.69437e-05
7.08883e-07
9.66873e-05
7.24389e-07
9.64251e-05
7.41438e-07
9.61563e-05
7.60299e-07
9.58802e-05
7.81282e-07
9.5596e-05
8.04755e-07
9.53027e-05
8.31157e-07
9.49991e-05
8.61008e-07
9.46838e-05
8.94936e-07
9.43553e-05
9.33696e-07
9.40115e-05
9.78211e-07
9.36503e-05
1.02961e-06
9.32688e-05
1.08929e-06
9.28639e-05
1.159e-06
9.24314e-05
1.24094e-06
9.19668e-05
1.33788e-06
9.1464e-05
1.45341e-06
9.09159e-05
1.59215e-06
9.03137e-05
1.76018e-06
8.96465e-05
1.9655e-06
8.89006e-05
2.21883e-06
8.80592e-05
2.53461e-06
8.71016e-05
2.93244e-06
8.60025e-05
3.439e-06
8.47326e-05
4.09042e-06
8.32598e-05
4.93497e-06
8.15549e-05
6.03472e-06
7.96057e-05
7.46304e-06
7.74458e-05
9.29074e-06
7.52193e-05
1.1546e-05
7.32977e-05
1.4094e-05
1.63136e-05
7.22663e-05
0.000113998
1.72909e-07
0.000113874
4.81958e-07
0.00011367
7.79099e-07
0.000113422
9.33743e-07
0.00011317
9.32246e-07
0.000112939
8.43922e-07
0.000112732
7.44261e-07
0.000112545
6.73922e-07
0.000112366
6.39611e-07
0.000112191
6.31318e-07
0.000112016
6.36494e-07
0.000111838
6.46174e-07
0.000111658
6.55708e-07
0.000111476
6.63409e-07
0.000111293
6.69115e-07
0.000111109
6.73241e-07
0.000110924
6.76312e-07
0.000110739
6.78789e-07
0.000110553
6.81027e-07
0.000110366
6.83285e-07
0.000110178
6.85752e-07
0.00010999
6.88574e-07
0.000109801
6.91855e-07
0.00010961
6.95676e-07
0.000109419
7.0009e-07
0.000109226
7.05133e-07
0.000109031
7.10813e-07
0.000108835
7.17123e-07
0.000108636
7.24038e-07
0.000108436
7.31521e-07
0.000108234
7.39524e-07
0.000108029
7.47998e-07
0.000107822
7.56895e-07
0.000107612
7.66167e-07
0.0001074
7.75779e-07
0.000107185
7.85701e-07
0.000106967
7.95918e-07
0.000106746
8.06426e-07
0.000106523
8.17237e-07
0.000106296
8.28373e-07
0.000106066
8.39876e-07
0.000105834
8.51798e-07
0.000105598
8.64206e-07
0.000105358
8.77184e-07
0.000105115
8.90834e-07
0.000104868
9.05273e-07
0.000104617
9.20643e-07
0.000104361
9.37108e-07
0.000104101
9.54858e-07
0.000103836
9.74117e-07
0.000103565
9.95143e-07
0.000103288
1.01824e-06
0.000103005
1.04376e-06
0.000102714
1.07211e-06
0.000102415
1.10379e-06
0.000102107
1.13936e-06
0.000101788
1.17952e-06
0.000101458
1.22507e-06
0.000101115
1.277e-06
0.000100756
1.3365e-06
0.000100381
1.40502e-06
9.99859e-05
1.48432e-06
9.95683e-05
1.57661e-06
9.91246e-05
1.68463e-06
9.86507e-05
1.81178e-06
9.81417e-05
1.96241e-06
9.75918e-05
2.14202e-06
9.69943e-05
2.35769e-06
9.63413e-05
2.61851e-06
9.56238e-05
2.93633e-06
9.48319e-05
3.3265e-06
9.39554e-05
3.80899e-06
9.29849e-05
4.4095e-06
9.19148e-05
5.16052e-06
9.07483e-05
6.10146e-06
8.95066e-05
7.27635e-06
8.8244e-05
8.72569e-06
8.70685e-05
1.04662e-05
8.61659e-05
1.24485e-05
8.57849e-05
1.4475e-05
1.6073e-05
8.60255e-05
0.000121989
2.13197e-07
0.000121868
6.02837e-07
0.000121665
9.81962e-07
0.000121412
1.18622e-06
0.000121151
1.19404e-06
0.000120905
1.08929e-06
0.000120683
9.66268e-07
0.00012048
8.77255e-07
0.000120287
8.3223e-07
0.000120099
8.19744e-07
0.000119911
8.24545e-07
0.000119722
8.35506e-07
0.000119531
8.46713e-07
0.000119338
8.55929e-07
0.000119144
8.62848e-07
0.00011895
8.67917e-07
0.000118754
8.71755e-07
0.000118558
8.74911e-07
0.000118361
8.77809e-07
0.000118164
8.80775e-07
0.000117966
8.84037e-07
0.000117766
8.8777e-07
0.000117566
8.92101e-07
0.000117365
8.97127e-07
0.000117162
9.02915e-07
0.000116957
9.09501e-07
0.000116751
9.16895e-07
0.000116543
9.25086e-07
0.000116333
9.34039e-07
0.000116121
9.43705e-07
0.000115907
9.54025e-07
0.00011569
9.64932e-07
0.00011547
9.76366e-07
0.000115248
9.88271e-07
0.000115023
1.0006e-06
0.000114796
1.01331e-06
0.000114565
1.02639e-06
0.000114332
1.03983e-06
0.000114095
1.05365e-06
0.000113856
1.06787e-06
0.000113613
1.08255e-06
0.000113367
1.09775e-06
0.000113118
1.11356e-06
0.000112865
1.13008e-06
0.000112608
1.14743e-06
0.000112348
1.16578e-06
0.000112083
1.18528e-06
0.000111814
1.20615e-06
0.00011154
1.22863e-06
0.000111262
1.25298e-06
0.000110977
1.27953e-06
0.000110687
1.30865e-06
0.00011039
1.34077e-06
0.000110085
1.3764e-06
0.000109773
1.41613e-06
0.000109452
1.46065e-06
0.000109121
1.51079e-06
0.000108778
1.56753e-06
0.000108423
1.63203e-06
0.000108054
1.70569e-06
0.000107669
1.79021e-06
0.000107265
1.88762e-06
0.000106842
2.00044e-06
0.000106394
2.13172e-06
0.000105921
2.28526e-06
0.000105418
2.46575e-06
0.000104881
2.679e-06
0.000104306
2.9323e-06
0.00010369
3.23473e-06
0.000103029
3.59763e-06
0.00010232
4.03509e-06
0.000101565
4.56438e-06
0.000100768
5.20628e-06
9.99436e-05
5.98468e-06
9.912e-05
6.92504e-06
9.83463e-05
8.05004e-06
9.77017e-05
9.37032e-06
9.73008e-05
1.08671e-05
9.72855e-05
1.24638e-05
9.77738e-05
1.39867e-05
1.51332e-05
9.87136e-05
0.00013054
2.49787e-07
0.000130426
7.1707e-07
0.000130229
1.17912e-06
0.000129976
1.43868e-06
0.000129707
1.46325e-06
0.000129448
1.34802e-06
0.00012921
1.20467e-06
0.00012899
1.09744e-06
0.000128781
1.04071e-06
0.000128578
1.02256e-06
0.000128377
1.02563e-06
0.000128176
1.03683e-06
0.000127974
1.049e-06
0.00012777
1.05929e-06
0.000127566
1.06716e-06
0.000127361
1.07304e-06
0.000127155
1.07759e-06
0.000126948
1.08143e-06
0.000126741
1.08504e-06
0.000126533
1.0888e-06
0.000126324
1.09295e-06
0.000126114
1.09772e-06
0.000125903
1.10323e-06
0.000125691
1.10961e-06
0.000125477
1.11691e-06
0.000125261
1.12519e-06
0.000125043
1.13444e-06
0.000124824
1.14465e-06
0.000124602
1.15578e-06
0.000124378
1.16775e-06
0.000124152
1.18051e-06
0.000123923
1.19396e-06
0.000123691
1.20804e-06
0.000123456
1.22268e-06
0.000123219
1.23781e-06
0.000122979
1.25339e-06
0.000122736
1.26941e-06
0.00012249
1.28585e-06
0.000122241
1.30274e-06
0.000121989
1.3201e-06
0.000121733
1.338e-06
0.000121475
1.35652e-06
0.000121212
1.37575e-06
0.000120947
1.39583e-06
0.000120677
1.41689e-06
0.000120404
1.43913e-06
0.000120126
1.46274e-06
0.000119845
1.48796e-06
0.000119558
1.51507e-06
0.000119267
1.5444e-06
0.00011897
1.57632e-06
0.000118667
1.61125e-06
0.000118358
1.64971e-06
0.000118042
1.69226e-06
0.000117719
1.7396e-06
0.000117387
1.7925e-06
0.000117046
1.8519e-06
0.000116695
1.91889e-06
0.000116332
1.99476e-06
0.000115957
2.08105e-06
0.000115567
2.17958e-06
0.000115162
2.29255e-06
0.00011474
2.42257e-06
0.000114299
2.57281e-06
0.000113837
2.74708e-06
0.000113353
2.94999e-06
0.000112845
3.1871e-06
0.000112312
3.4651e-06
0.000111755
3.79204e-06
0.000111175
4.17747e-06
0.000110577
4.63255e-06
0.000109972
5.17005e-06
0.000109374
5.80387e-06
0.000108811
6.54799e-06
0.000108322
7.41418e-06
0.000107964
8.40772e-06
0.000107814
9.52004e-06
0.000107964
1.07176e-05
0.0001085
1.19271e-05
0.000109465
1.30224e-05
1.3825e-05
0.000110773
0.000139691
2.81618e-07
0.000139586
8.21554e-07
0.000139399
1.36616e-06
0.000139151
1.68687e-06
0.000138877
1.73707e-06
0.000138606
1.61903e-06
0.000138351
1.45967e-06
0.000138114
1.33535e-06
0.000137888
1.26605e-06
0.00013767
1.2406e-06
0.000137455
1.24031e-06
0.000137242
1.25045e-06
0.000137028
1.26267e-06
0.000136814
1.27342e-06
0.000136599
1.28189e-06
0.000136384
1.28839e-06
0.000136168
1.29357e-06
0.000135951
1.2981e-06
0.000135734
1.30248e-06
0.000135516
1.30711e-06
0.000135296
1.31228e-06
0.000135076
1.31822e-06
0.000134854
1.32507e-06
0.000134631
1.33295e-06
0.000134406
1.34194e-06
0.000134179
1.35206e-06
0.00013395
1.36333e-06
0.000133719
1.3757e-06
0.000133485
1.38914e-06
0.00013325
1.40355e-06
0.000133011
1.41885e-06
0.00013277
1.43495e-06
0.000132526
1.45176e-06
0.00013228
1.46919e-06
0.000132031
1.48719e-06
0.000131778
1.50569e-06
0.000131523
1.52469e-06
0.000131265
1.54416e-06
0.000131003
1.56412e-06
0.000130739
1.58463e-06
0.000130471
1.60573e-06
0.0001302
1.62754e-06
0.000129926
1.65015e-06
0.000129648
1.67371e-06
0.000129366
1.6984e-06
0.000129081
1.72441e-06
0.000128792
1.75197e-06
0.000128498
1.78135e-06
0.0001282
1.81288e-06
0.000127898
1.8469e-06
0.00012759
1.88383e-06
0.000127278
1.92415e-06
0.000126959
1.96841e-06
0.000126634
2.01724e-06
0.000126302
2.07138e-06
0.000125963
2.13167e-06
0.000125616
2.19911e-06
0.00012526
2.27484e-06
0.000124894
2.36022e-06
0.000124519
2.4568e-06
0.000124132
2.56645e-06
0.000123733
2.69131e-06
0.000123322
2.83396e-06
0.000122897
2.99737e-06
0.000122459
3.18507e-06
0.000122008
3.40116e-06
0.000121544
3.65042e-06
0.000121071
3.93835e-06
0.000120592
4.2712e-06
0.000120114
4.65595e-06
0.000119646
5.1001e-06
0.000119205
5.61132e-06
0.000118812
6.19672e-06
0.000118498
6.86157e-06
0.000118305
7.60728e-06
0.000118285
8.42811e-06
0.000118498
9.30672e-06
0.000119007
1.02084e-05
0.000119859
1.10755e-05
0.000121056
1.18252e-05
1.23572e-05
0.000122524
0.000149483
3.08092e-07
0.000149391
9.14099e-07
0.000149217
1.53962e-06
0.000148977
1.92704e-06
0.000148702
2.0125e-06
0.00014842
1.90059e-06
0.000148149
1.7307e-06
0.000147893
1.59115e-06
0.000147651
1.5087e-06
0.000147417
1.47434e-06
0.000147188
1.46892e-06
0.000146962
1.47652e-06
0.000146737
1.4877e-06
0.000146512
1.49822e-06
0.000146287
1.50684e-06
0.000146062
1.51371e-06
0.000145836
1.51943e-06
0.00014561
1.52462e-06
0.000145382
1.52982e-06
0.000145154
1.53543e-06
0.000144925
1.54175e-06
0.000144694
1.54901e-06
0.000144462
1.55737e-06
0.000144228
1.56693e-06
0.000143992
1.57777e-06
0.000143754
1.58991e-06
0.000143514
1.60335e-06
0.000143271
1.61804e-06
0.000143027
1.6339e-06
0.000142779
1.65086e-06
0.000142529
1.6688e-06
0.000142277
1.68762e-06
0.000142021
1.70721e-06
0.000141763
1.72748e-06
0.000141502
1.74837e-06
0.000141238
1.7698e-06
0.000140971
1.79175e-06
0.000140701
1.81422e-06
0.000140427
1.83722e-06
0.000140151
1.8608e-06
0.000139872
1.88503e-06
0.00013959
1.91001e-06
0.000139304
1.93586e-06
0.000139015
1.96275e-06
0.000138722
1.99085e-06
0.000138426
2.02039e-06
0.000138127
2.05161e-06
0.000137823
2.08482e-06
0.000137516
2.12034e-06
0.000137204
2.15856e-06
0.000136888
2.19991e-06
0.000136567
2.24491e-06
0.000136241
2.29414e-06
0.00013591
2.34823e-06
0.000135574
2.40796e-06
0.000135231
2.47419e-06
0.000134883
2.54791e-06
0.000134527
2.63027e-06
0.000134165
2.72256e-06
0.000133795
2.8263e-06
0.000133418
2.94323e-06
0.000133034
3.07533e-06
0.000132644
3.22488e-06
0.000132246
3.39448e-06
0.000131844
3.58705e-06
0.00013144
3.80588e-06
0.000131035
4.05462e-06
0.000130637
4.33719e-06
0.00013025
4.65774e-06
0.000129886
5.02043e-06
0.000129557
5.42914e-06
0.000129281
5.88698e-06
0.000129082
6.39559e-06
0.00012899
6.95403e-06
0.000129039
7.55738e-06
0.000129273
8.19481e-06
0.000129732
8.84735e-06
0.000130455
9.4857e-06
0.000131461
1.0069e-05
0.00013274
1.05463e-05
1.08631e-05
0.000134234
0.000159961
3.29174e-07
0.000159881
9.93735e-07
0.000159724
1.6974e-06
0.000159494
2.15628e-06
0.00015922
2.28663e-06
0.000158931
2.19039e-06
0.000158645
2.01631e-06
0.000158372
1.86412e-06
0.000158112
1.76845e-06
0.000157863
1.72377e-06
0.00015762
1.7115e-06
0.000157382
1.71505e-06
0.000157145
1.72405e-06
0.00015691
1.73353e-06
0.000156675
1.74181e-06
0.00015644
1.74877e-06
0.000156205
1.75488e-06
0.000155968
1.76072e-06
0.000155731
1.76678e-06
0.000155493
1.77347e-06
0.000155254
1.78107e-06
0.000155013
1.78982e-06
0.000154771
1.79985e-06
0.000154526
1.81128e-06
0.00015428
1.82415e-06
0.000154032
1.83847e-06
0.000153781
1.85423e-06
0.000153527
1.87136e-06
0.000153271
1.88977e-06
0.000153013
1.90936e-06
0.000152752
1.93001e-06
0.000152488
1.95159e-06
0.000152221
1.97398e-06
0.000151951
1.99709e-06
0.000151679
2.02084e-06
0.000151404
2.04515e-06
0.000151125
2.06999e-06
0.000150844
2.09536e-06
0.00015056
2.12127e-06
0.000150273
2.14778e-06
0.000149983
2.17495e-06
0.00014969
2.2029e-06
0.000149394
2.23175e-06
0.000149095
2.26167e-06
0.000148793
2.29285e-06
0.000148488
2.32553e-06
0.00014818
2.35996e-06
0.000147868
2.39644e-06
0.000147553
2.43533e-06
0.000147235
2.47702e-06
0.000146913
2.52194e-06
0.000146587
2.57062e-06
0.000146258
2.62361e-06
0.000145924
2.68158e-06
0.000145587
2.74525e-06
0.000145246
2.81546e-06
0.0001449
2.89315e-06
0.000144551
2.97936e-06
0.000144199
3.07531e-06
0.000143843
3.18231e-06
0.000143484
3.30189e-06
0.000143124
3.4357e-06
0.000142763
3.58558e-06
0.000142404
3.75356e-06
0.000142049
3.94179e-06
0.000141702
4.15257e-06
0.000141369
4.38823e-06
0.000141055
4.65105e-06
0.000140769
4.94311e-06
0.000140524
5.26603e-06
0.000140332
5.62071e-06
0.000140212
6.00682e-06
0.000140186
6.42233e-06
0.000140277
6.86275e-06
0.000140514
7.32035e-06
0.000140926
7.78329e-06
0.000141538
8.23481e-06
0.000142371
8.65281e-06
0.00014343
9.01032e-06
0.000144699
9.27737e-06
9.42495e-06
0.000146137
0.000171172
3.45389e-07
0.000171105
1.06078e-06
0.000170963
1.83897e-06
0.000170747
2.37287e-06
0.000170476
2.55688e-06
0.000170181
2.48575e-06
0.000169883
2.31427e-06
0.000169595
2.15271e-06
0.000169319
2.04436e-06
0.000169054
1.98838e-06
0.000168798
1.96779e-06
0.000168547
1.96585e-06
0.0001683
1.97152e-06
0.000168054
1.97916e-06
0.000167809
1.98657e-06
0.000167565
1.99331e-06
0.00016732
1.99967e-06
0.000167074
2.00611e-06
0.000166828
2.01308e-06
0.000166581
2.02095e-06
0.000166332
2.02998e-06
0.000166081
2.04037e-06
0.000165829
2.05225e-06
0.000165574
2.06571e-06
0.000165318
2.08077e-06
0.000165059
2.09743e-06
0.000164797
2.11565e-06
0.000164533
2.13533e-06
0.000164267
2.15637e-06
0.000163997
2.17865e-06
0.000163725
2.20203e-06
0.000163451
2.22636e-06
0.000163173
2.25153e-06
0.000162893
2.27742e-06
0.00016261
2.30394e-06
0.000162324
2.33101e-06
0.000162035
2.3586e-06
0.000161744
2.3867e-06
0.00016145
2.41532e-06
0.000161153
2.44451e-06
0.000160854
2.47434e-06
0.000160552
2.50493e-06
0.000160247
2.5364e-06
0.00015994
2.56893e-06
0.00015963
2.6027e-06
0.000159317
2.63794e-06
0.000159002
2.67492e-06
0.000158685
2.71394e-06
0.000158365
2.75533e-06
0.000158042
2.79948e-06
0.000157718
2.84681e-06
0.00015739
2.89782e-06
0.000157061
2.95303e-06
0.000156729
3.01306e-06
0.000156396
3.07858e-06
0.000156061
3.15032e-06
0.000155725
3.22912e-06
0.000155389
3.31588e-06
0.000155052
3.41159e-06
0.000154717
3.51735e-06
0.000154385
3.63432e-06
0.000154057
3.76375e-06
0.000153736
3.90695e-06
0.000153424
4.06525e-06
0.000153126
4.23998e-06
0.000152846
4.43239e-06
0.000152591
4.64357e-06
0.000152367
4.8743e-06
0.000152185
5.12492e-06
0.000152056
5.39513e-06
0.000151993
5.68368e-06
0.000152012
5.98816e-06
0.00015213
6.30457e-06
0.000152365
6.62705e-06
0.000152738
6.94749e-06
0.000153266
7.25529e-06
0.000153964
7.53733e-06
0.000154838
7.77823e-06
0.000155888
7.96109e-06
0.000157096
8.06896e-06
8.08695e-06
0.000158434
0.000183167
3.57657e-07
0.000183111
1.11663e-06
0.000182985
1.96516e-06
0.000182781
2.57625e-06
0.000182517
2.82123e-06
0.000182219
2.78388e-06
0.000181911
2.6218e-06
0.000181609
2.45469e-06
0.000181319
2.33486e-06
0.00018104
2.2672e-06
0.000180771
2.23717e-06
0.000180508
2.22855e-06
0.00018025
2.22988e-06
0.000179994
2.23492e-06
0.00017974
2.24094e-06
0.000179486
2.24715e-06
0.000179232
2.25359e-06
0.000178977
2.26059e-06
0.000178722
2.2685e-06
0.000178465
2.27763e-06
0.000178207
2.28821e-06
0.000177947
2.30039e-06
0.000177685
2.31427e-06
0.000177421
2.32991e-06
0.000177154
2.34731e-06
0.000176885
2.36643e-06
0.000176614
2.3872e-06
0.000176339
2.4095e-06
0.000176063
2.43322e-06
0.000175783
2.45819e-06
0.000175501
2.48428e-06
0.000175216
2.51132e-06
0.000174928
2.53917e-06
0.000174638
2.56771e-06
0.000174345
2.59684e-06
0.000174049
2.62648e-06
0.000173751
2.65659e-06
0.000173451
2.68715e-06
0.000173148
2.71817e-06
0.000172843
2.74969e-06
0.000172536
2.78178e-06
0.000172226
2.81455e-06
0.000171914
2.84812e-06
0.0001716
2.88266e-06
0.000171285
2.91834e-06
0.000170967
2.95539e-06
0.000170648
2.99405e-06
0.000170328
3.03461e-06
0.000170005
3.07737e-06
0.000169682
3.12269e-06
0.000169358
3.17097e-06
0.000169033
3.22262e-06
0.000168708
3.27813e-06
0.000168383
3.33802e-06
0.000168059
3.40285e-06
0.000167736
3.47323e-06
0.000167415
3.54983e-06
0.000167098
3.63334e-06
0.000166785
3.72451e-06
0.000166478
3.8241e-06
0.00016618
3.9329e-06
0.000165892
4.05169e-06
0.000165617
4.18119e-06
0.000165361
4.32207e-06
0.000165126
4.47486e-06
0.000164918
4.63987e-06
0.000164745
4.81713e-06
0.000164613
5.00626e-06
0.000164531
5.20638e-06
0.00016451
5.41588e-06
0.000164562
5.63236e-06
0.000164698
5.85241e-06
0.000164931
6.07146e-06
0.000165274
6.28368e-06
0.00016574
6.48195e-06
0.000166337
6.65787e-06
0.000167072
6.80202e-06
0.000167946
6.90434e-06
0.000168952
6.95481e-06
0.000170077
6.94429e-06
6.86559e-06
0.000171298
0.000196
3.67098e-07
0.000195954
1.16333e-06
0.000195841
2.07786e-06
0.00019565
2.76687e-06
0.000195393
3.07836e-06
0.000195095
3.08219e-06
0.000194781
2.93596e-06
0.000194468
2.76742e-06
0.000194165
2.63794e-06
0.000193873
2.55881e-06
0.000193592
2.51877e-06
0.000193318
2.50259e-06
0.000193049
2.49876e-06
0.000192783
2.50052e-06
0.00019252
2.50469e-06
0.000192257
2.51007e-06
0.000191994
2.51644e-06
0.00019173
2.52394e-06
0.000191466
2.53282e-06
0.0001912
2.54329e-06
0.000190933
2.55551e-06
0.000190664
2.5696e-06
0.000190393
2.58561e-06
0.000190119
2.60355e-06
0.000189843
2.62338e-06
0.000189564
2.64503e-06
0.000189283
2.6684e-06
0.000188999
2.69335e-06
0.000188713
2.71972e-06
0.000188424
2.74734e-06
0.000188132
2.77604e-06
0.000187837
2.80566e-06
0.000187541
2.83603e-06
0.000187241
2.86702e-06
0.00018694
2.89852e-06
0.000186636
2.93045e-06
0.000186329
2.96275e-06
0.000186021
2.99539e-06
0.000185711
3.02838e-06
0.000185399
3.06175e-06
0.000185085
3.09556e-06
0.00018477
3.1299e-06
0.000184453
3.16489e-06
0.000184135
3.20066e-06
0.000183816
3.23739e-06
0.000183496
3.27527e-06
0.000183176
3.31451e-06
0.000182855
3.35536e-06
0.000182534
3.3981e-06
0.000182214
3.44301e-06
0.000181894
3.49044e-06
0.000181576
3.54073e-06
0.00018126
3.59427e-06
0.000180947
3.65145e-06
0.000180637
3.71271e-06
0.000180331
3.77848e-06
0.000180032
3.84923e-06
0.00017974
3.92542e-06
0.000179457
4.0075e-06
0.000179185
4.09589e-06
0.000178927
4.19098e-06
0.000178686
4.29308e-06
0.000178465
4.40239e-06
0.000178268
4.51896e-06
0.0001781
4.64266e-06
0.000177967
4.77307e-06
0.000177874
4.90945e-06
0.00017783
5.05067e-06
0.000177841
5.19508e-06
0.000177917
5.34048e-06
0.000178065
5.48403e-06
0.000178295
5.62217e-06
0.000178616
5.75062e-06
0.000179035
5.86442e-06
0.000179559
5.95793e-06
0.000180192
6.02511e-06
0.000180934
6.05965e-06
0.000181783
6.05542e-06
0.000182731
6.00685e-06
0.000183766
5.90941e-06
5.76005e-06
0.000184872
0.000209732
3.74797e-07
0.000209692
1.2032e-06
0.00020959
2.17946e-06
0.000209411
2.94592e-06
0.000209162
3.32759e-06
0.000208866
3.37851e-06
0.000208548
3.25391e-06
0.000208227
3.08813e-06
0.000207914
2.95131e-06
0.000207611
2.86157e-06
0.000207318
2.81144e-06
0.000207034
2.78724e-06
0.000206755
2.77766e-06
0.00020648
2.77564e-06
0.000206207
2.77757e-06
0.000205935
2.78186e-06
0.000205663
2.78801e-06
0.000205391
2.79596e-06
0.000205118
2.80581e-06
0.000204844
2.81766e-06
0.000204568
2.8316e-06
0.00020429
2.84767e-06
0.000204009
2.86588e-06
0.000203727
2.88619e-06
0.000203442
2.9085e-06
0.000203154
2.9327e-06
0.000202864
2.95866e-06
0.000202571
2.9862e-06
0.000202275
3.01514e-06
0.000201978
3.04528e-06
0.000201677
3.07643e-06
0.000201374
3.10841e-06
0.000201069
3.14105e-06
0.000200762
3.1742e-06
0.000200453
3.20773e-06
0.000200142
3.24156e-06
0.000199829
3.2756e-06
0.000199515
3.30983e-06
0.000199199
3.34424e-06
0.000198882
3.37883e-06
0.000198563
3.41367e-06
0.000198245
3.4488e-06
0.000197925
3.48434e-06
0.000197605
3.52039e-06
0.000197286
3.55708e-06
0.000196966
3.59459e-06
0.000196648
3.63307e-06
0.00019633
3.67273e-06
0.000196015
3.71377e-06
0.000195701
3.75643e-06
0.000195391
3.80095e-06
0.000195084
3.84758e-06
0.000194782
3.89658e-06
0.000194485
3.94821e-06
0.000194195
4.00276e-06
0.000193913
4.06046e-06
0.00019364
4.12156e-06
0.00019338
4.18626e-06
0.000193132
4.25473e-06
0.000192901
4.32706e-06
0.000192689
4.40328e-06
0.000192499
4.48327e-06
0.000192334
4.56681e-06
0.0001922
4.65348e-06
0.0001921
4.74264e-06
0.000192039
4.83341e-06
0.000192024
4.92459e-06
0.00019206
5.01464e-06
0.000192154
5.10166e-06
0.000192311
5.18331e-06
0.000192538
5.25684e-06
0.000192841
5.31909e-06
0.000193225
5.36651e-06
0.000193694
5.39528e-06
0.000194251
5.40134e-06
0.000194895
5.38067e-06
0.000195626
5.32939e-06
0.000196437
5.24407e-06
0.000197322
5.12193e-06
0.00019827
4.9611e-06
4.76074e-06
0.000199269
0.000224424
3.81691e-07
0.000224388
1.23847e-06
0.000224295
2.27254e-06
0.000224126
3.11502e-06
0.000223885
3.56884e-06
0.000223592
3.67121e-06
0.000223273
3.57312e-06
0.000222947
3.41415e-06
0.000222626
3.27267e-06
0.000222314
3.17365e-06
0.000222011
3.11387e-06
0.000221717
3.08157e-06
0.000221429
3.06594e-06
0.000221144
3.05982e-06
0.000220863
3.05922e-06
0.000220582
3.06223e-06
0.000220302
3.06803e-06
0.000220022
3.07637e-06
0.000219741
3.08717e-06
0.000219458
3.10041e-06
0.000219173
3.1161e-06
0.000218887
3.1342e-06
0.000218598
3.15463e-06
0.000218307
3.17729e-06
0.000218013
3.20206e-06
0.000217717
3.22876e-06
0.000217419
3.25721e-06
0.000217118
3.28721e-06
0.000216814
3.31855e-06
0.000216509
3.351e-06
0.000216201
3.38435e-06
0.000215891
3.4184e-06
0.000215579
3.45295e-06
0.000215265
3.48786e-06
0.00021495
3.52297e-06
0.000214633
3.55818e-06
0.000214315
3.59341e-06
0.000213997
3.6286e-06
0.000213677
3.66372e-06
0.000213357
3.69877e-06
0.000213037
3.73376e-06
0.000212717
3.76874e-06
0.000212398
3.80378e-06
0.000212079
3.83894e-06
0.000211762
3.87432e-06
0.000211447
3.91003e-06
0.000211133
3.94619e-06
0.000210823
3.98293e-06
0.000210517
4.02038e-06
0.000210214
4.05869e-06
0.000209917
4.098e-06
0.000209626
4.13844e-06
0.000209343
4.18015e-06
0.000209068
4.22325e-06
0.000208803
4.26782e-06
0.000208549
4.31394e-06
0.000208309
4.36161e-06
0.000208085
4.41083e-06
0.000207878
4.46147e-06
0.000207692
4.51337e-06
0.000207529
4.56623e-06
0.000207392
4.61966e-06
0.000207286
4.67308e-06
0.000207214
4.72578e-06
0.000207179
4.77683e-06
0.000207188
4.82511e-06
0.000207243
4.86924e-06
0.00020735
4.90762e-06
0.000207513
4.93837e-06
0.000207737
4.95937e-06
0.000208026
4.9683e-06
0.000208382
4.9626e-06
0.000208809
4.93964e-06
0.000209308
4.89669e-06
0.000209878
4.83112e-06
0.000210518
4.74047e-06
0.000211225
4.6226e-06
0.000211993
4.47586e-06
0.000212816
4.29919e-06
0.000213685
4.09222e-06
3.85522e-06
0.00021459
0.000240144
3.88492e-07
0.000240111
1.27105e-06
0.000240024
2.3595e-06
0.000239864
3.27592e-06
0.00023963
3.80245e-06
0.000239342
3.95916e-06
0.000239024
3.89153e-06
0.000238695
3.74309e-06
0.000238368
3.59972e-06
0.000238048
3.49316e-06
0.000237737
3.4246e-06
0.000237435
3.38449e-06
0.000237138
3.36281e-06
0.000236845
3.35244e-06
0.000236555
3.34915e-06
0.000236267
3.35073e-06
0.000235979
3.3561e-06
0.00023569
3.36476e-06
0.000235401
3.37647e-06
0.00023511
3.3911e-06
0.000234818
3.40852e-06
0.000234523
3.4286e-06
0.000234227
3.45121e-06
0.000233928
3.47616e-06
0.000233627
3.50328e-06
0.000233323
3.53233e-06
0.000233017
3.56311e-06
0.000232709
3.59535e-06
0.000232399
3.62882e-06
0.000232086
3.66327e-06
0.000231772
3.69846e-06
0.000231457
3.73417e-06
0.000231139
3.77019e-06
0.000230821
3.80633e-06
0.000230501
3.84246e-06
0.000230181
3.87842e-06
0.00022986
3.91413e-06
0.000229539
3.94951e-06
0.000229219
3.98449e-06
0.000228898
4.01905e-06
0.000228579
4.05318e-06
0.000228261
4.08688e-06
0.000227944
4.12017e-06
0.00022763
4.15309e-06
0.000227319
4.18568e-06
0.000227011
4.21799e-06
0.000226707
4.25006e-06
0.000226408
4.28196e-06
0.000226115
4.31374e-06
0.000225828
4.34543e-06
0.000225549
4.37708e-06
0.000225279
4.40871e-06
0.000225018
4.4403e-06
0.00022477
4.47182e-06
0.000224534
4.50322e-06
0.000224314
4.53437e-06
0.00022411
4.56511e-06
0.000223926
4.59521e-06
0.000223763
4.62437e-06
0.000223624
4.65218e-06
0.000223512
4.67816e-06
0.00022343
4.70169e-06
0.000223381
4.72205e-06
0.000223369
4.73834e-06
0.000223396
4.74956e-06
0.000223467
4.75452e-06
0.000223584
4.75191e-06
0.000223751
4.74024e-06
0.000223972
4.7179e-06
0.000224248
4.68318e-06
0.000224582
4.63427e-06
0.000224975
4.56933e-06
0.000225428
4.48654e-06
0.000225941
4.38419e-06
0.000226511
4.26072e-06
0.000227137
4.11482e-06
0.000227814
3.94556e-06
0.000228538
3.75239e-06
0.000229301
3.53528e-06
0.000230099
3.29465e-06
3.03133e-06
0.000230923
0.000256965
3.95703e-07
0.000256934
1.30249e-06
0.000256851
2.44242e-06
0.000256696
3.43035e-06
0.00025647
4.02903e-06
0.000256187
4.24168e-06
0.000255871
4.20749e-06