/*--------------------------------*- C++ -*----------------------------------*\
| =========                 |                                                 |
| \\      /  F ield         | OpenFOAM: The Open Source CFD Toolbox           |
|  \\    /   O peration     | Version:  2106                                  |
|   \\  /    A nd           | Website:  www.openfoam.com                      |
|    \\/     M anipulation  |                                                 |
\*---------------------------------------------------------------------------*/
FoamFile
{
    version     2.0;
    format      ascii;
    arch        "LSB;label=32;scalar=64";
    class       surfaceScalarField;
    location    "0.4";
    object      phi;
}
// * * * * * * * * * * * * * * * * * * * * * * * * * * * * * * * * * * * * * //

dimensions      [1 0 -1 0 0 0 0];

oriented        oriented;

internalField   nonuniform List<scalar> 
23692
(
9.30408e-05
3.87933e-08
9.29329e-05
1.07904e-07
9.27585e-05
1.74339e-07
9.25516e-05
2.06921e-07
9.23483e-05
2.03384e-07
9.21676e-05
1.80654e-07
9.20112e-05
1.56451e-07
9.18713e-05
1.39941e-07
9.17391e-05
1.32269e-07
9.16084e-05
1.30806e-07
9.1476e-05
1.32488e-07
9.13409e-05
1.35194e-07
9.12032e-05
1.37859e-07
9.10633e-05
1.40114e-07
9.09216e-05
1.41933e-07
9.07785e-05
1.43413e-07
9.06342e-05
1.4465e-07
9.04889e-05
1.45728e-07
9.03427e-05
1.46688e-07
9.01957e-05
1.47556e-07
9.00481e-05
1.48334e-07
8.98999e-05
1.49014e-07
8.97512e-05
1.49573e-07
8.96023e-05
1.49995e-07
8.94533e-05
1.50248e-07
8.93043e-05
1.50312e-07
8.91557e-05
1.5016e-07
8.90077e-05
1.49779e-07
8.88605e-05
1.49156e-07
8.87144e-05
1.48286e-07
8.85697e-05
1.47177e-07
8.84265e-05
1.45836e-07
8.82851e-05
1.44283e-07
8.81458e-05
1.42545e-07
8.80086e-05
1.40651e-07
8.78737e-05
1.38638e-07
8.77412e-05
1.36546e-07
8.76111e-05
1.34416e-07
8.74835e-05
1.32294e-07
8.73582e-05
1.30226e-07
8.72352e-05
1.28257e-07
8.71144e-05
1.26434e-07
8.69955e-05
1.24805e-07
8.68783e-05
1.23414e-07
8.67626e-05
1.22308e-07
8.66479e-05
1.21533e-07
8.65339e-05
1.21139e-07
8.64202e-05
1.21171e-07
8.63063e-05
1.21684e-07
8.61916e-05
1.22734e-07
8.60756e-05
1.24385e-07
8.59575e-05
1.26707e-07
8.58365e-05
1.29788e-07
8.57119e-05
1.33723e-07
8.55827e-05
1.38634e-07
8.54476e-05
1.44662e-07
8.53054e-05
1.51985e-07
8.51546e-05
1.60816e-07
8.49934e-05
1.71418e-07
8.48197e-05
1.84117e-07
8.46309e-05
1.99321e-07
8.44241e-05
2.17537e-07
8.41956e-05
2.39406e-07
8.39408e-05
2.65748e-07
8.36543e-05
2.97615e-07
8.33292e-05
3.36378e-07
8.29567e-05
3.83845e-07
8.25256e-05
4.42442e-07
8.20216e-05
5.15459e-07
8.14257e-05
6.07453e-07
8.07125e-05
7.24831e-07
7.98473e-05
8.7678e-07
7.87822e-05
1.07671e-06
7.74493e-05
1.34457e-06
7.57504e-05
1.71056e-06
7.3541e-05
2.22108e-06
7.06046e-05
2.94798e-06
6.66123e-05
4.00393e-06
6.10457e-05
5.57821e-06
5.30331e-05
8.02414e-06
1.22786e-05
4.07661e-05
9.95598e-05
7.83714e-08
9.94465e-05
2.21179e-07
9.92623e-05
3.58597e-07
9.90426e-05
4.26552e-07
9.8826e-05
4.20075e-07
9.86329e-05
3.73773e-07
9.84652e-05
3.24134e-07
9.83151e-05
2.90112e-07
9.81733e-05
2.74188e-07
9.80331e-05
2.71023e-07
9.78914e-05
2.74346e-07
9.77469e-05
2.79812e-07
9.75997e-05
2.85218e-07
9.74502e-05
2.8981e-07
9.72989e-05
2.93526e-07
9.71461e-05
2.96547e-07
9.6992e-05
2.99086e-07
9.68369e-05
3.01294e-07
9.66808e-05
3.0327e-07
9.6524e-05
3.05054e-07
9.63664e-05
3.06655e-07
9.62082e-05
3.08052e-07
9.60495e-05
3.09213e-07
9.58906e-05
3.10086e-07
9.57315e-05
3.10616e-07
9.55726e-05
3.10753e-07
9.54139e-05
3.10456e-07
9.52559e-05
3.09684e-07
9.50988e-05
3.08417e-07
9.49427e-05
3.06649e-07
9.47881e-05
3.04386e-07
9.46351e-05
3.0165e-07
9.44841e-05
2.98483e-07
9.43351e-05
2.94936e-07
9.41884e-05
2.91073e-07
9.4044e-05
2.86965e-07
9.39022e-05
2.82697e-07
9.37629e-05
2.78354e-07
9.36262e-05
2.74029e-07
9.34919e-05
2.69816e-07
9.336e-05
2.65809e-07
9.32303e-05
2.62107e-07
9.31026e-05
2.58803e-07
9.29767e-05
2.55993e-07
9.28523e-05
2.53771e-07
9.27289e-05
2.52234e-07
9.26062e-05
2.51479e-07
9.24838e-05
2.51607e-07
9.2361e-05
2.52725e-07
9.22374e-05
2.54948e-07
9.21123e-05
2.58407e-07
9.1985e-05
2.63249e-07
9.18546e-05
2.69644e-07
9.17203e-05
2.77797e-07
9.1581e-05
2.87949e-07
9.14355e-05
3.00393e-07
9.12825e-05
3.15483e-07
9.11204e-05
3.33652e-07
9.09473e-05
3.55435e-07
9.07611e-05
3.81486e-07
9.05591e-05
4.12622e-07
9.03382e-05
4.49861e-07
9.00948e-05
4.94482e-07
8.98242e-05
5.48108e-07
8.95209e-05
6.12814e-07
8.9178e-05
6.91288e-07
8.87869e-05
7.87048e-07
8.83367e-05
9.04756e-07
8.78138e-05
1.05068e-06
8.72002e-05
1.23337e-06
8.64728e-05
1.46464e-06
8.56009e-05
1.76108e-06
8.45438e-05
2.14624e-06
8.32469e-05
2.65391e-06
8.16372e-05
3.33282e-06
7.96178e-05
4.2529e-06
7.70663e-05
5.5119e-06
7.38436e-05
7.23911e-06
6.9842e-05
9.59221e-06
6.51898e-05
1.26887e-05
1.61193e-05
6.13615e-05
0.000106536
1.17738e-07
0.00010642
3.37495e-07
0.000106229
5.49777e-07
0.000105999
6.56664e-07
0.00010577
6.49268e-07
0.000105564
5.79869e-07
0.000105384
5.04307e-07
0.000105222
4.51983e-07
0.000105069
4.27085e-07
0.000104918
4.21712e-07
0.000104766
4.26377e-07
0.000104612
4.34441e-07
0.000104455
4.42532e-07
0.000104295
4.49442e-07
0.000104134
4.55061e-07
0.000103971
4.59653e-07
0.000103807
4.63521e-07
0.000103642
4.66895e-07
0.000103476
4.69916e-07
0.000103309
4.72651e-07
0.000103141
4.75108e-07
0.000102973
4.77258e-07
0.000102804
4.79043e-07
0.000102635
4.8039e-07
0.000102466
4.81219e-07
0.000102297
4.8145e-07
0.000102128
4.81015e-07
0.00010196
4.7986e-07
0.000101793
4.77952e-07
0.000101627
4.75278e-07
0.000101462
4.7185e-07
0.000101299
4.67706e-07
0.000101138
4.62905e-07
0.000100979
4.57525e-07
0.000100822
4.51665e-07
0.000100668
4.45439e-07
0.000100516
4.38971e-07
0.000100367
4.32395e-07
0.000100221
4.25852e-07
0.000100077
4.19487e-07
9.99353e-05
4.13448e-07
9.97959e-05
4.07878e-07
9.96585e-05
4.02926e-07
9.95229e-05
3.98739e-07
9.93887e-05
3.95463e-07
9.92555e-05
3.93244e-07
9.9123e-05
3.9223e-07
9.89905e-05
3.92577e-07
9.88577e-05
3.94449e-07
9.87238e-05
3.98023e-07
9.85883e-05
4.03497e-07
9.84503e-05
4.11094e-07
9.8309e-05
4.21077e-07
9.81635e-05
4.33751e-07
9.80126e-05
4.49484e-07
9.78553e-05
4.68714e-07
9.769e-05
4.91977e-07
9.75152e-05
5.19923e-07
9.7329e-05
5.53345e-07
9.71291e-05
5.93223e-07
9.69131e-05
6.40761e-07
9.66778e-05
6.97459e-07
9.64195e-05
7.65186e-07
9.61339e-05
8.46297e-07
9.58156e-05
9.43778e-07
9.54583e-05
1.06145e-06
9.5054e-05
1.20426e-06
9.45932e-05
1.37866e-06
9.40638e-05
1.59317e-06
9.34512e-05
1.85916e-06
9.27371e-05
2.19193e-06
9.18992e-05
2.61224e-06
9.09104e-05
3.14839e-06
8.97388e-05
3.8388e-06
8.83499e-05
4.73507e-06
8.6712e-05
5.90411e-06
8.48109e-05
7.42632e-06
8.26812e-05
9.3821e-06
8.04758e-05
1.18109e-05
7.85936e-05
1.45841e-05
1.70543e-05
7.76716e-05
0.000114003
1.55749e-07
0.000113887
4.53745e-07
0.000113692
7.44006e-07
0.000113455
8.9419e-07
0.000113215
8.89637e-07
0.000112995
7.99261e-07
0.000112801
6.98303e-07
0.000112626
6.27191e-07
0.000112461
5.92466e-07
0.000112299
5.84059e-07
0.000112136
5.89435e-07
0.000111971
5.99689e-07
0.000111803
6.10201e-07
0.000111633
6.19296e-07
0.000111462
6.26746e-07
0.000111289
6.32871e-07
0.000111115
6.38055e-07
0.00011094
6.42595e-07
0.000110764
6.46671e-07
0.000110587
6.50366e-07
0.000110409
6.5369e-07
0.000110231
6.56606e-07
0.000110052
6.59033e-07
0.000109873
6.6087e-07
0.000109693
6.62012e-07
0.000109514
6.62351e-07
0.000109335
6.61796e-07
0.000109157
6.60274e-07
0.00010898
6.5774e-07
0.000108803
6.5418e-07
0.000108629
6.4961e-07
0.000108455
6.4408e-07
0.000108284
6.37669e-07
0.000108115
6.30487e-07
0.000107948
6.22665e-07
0.000107784
6.14357e-07
0.000107622
6.05733e-07
0.000107463
5.96974e-07
0.000107306
5.8827e-07
0.000107152
5.7982e-07
0.000107
5.71819e-07
0.00010685
5.64469e-07
0.000106703
5.57968e-07
0.000106556
5.52516e-07
0.000106412
5.48309e-07
0.000106268
5.45547e-07
0.000106124
5.44433e-07
0.000105981
5.45175e-07
0.000105837
5.47995e-07
0.000105691
5.53131e-07
0.000105544
5.6085e-07
0.000105394
5.71453e-07
0.000105241
5.85288e-07
0.000105083
6.02765e-07
0.00010492
6.24369e-07
0.000104749
6.50684e-07
0.000104571
6.82411e-07
0.000104383
7.20404e-07
0.000104183
7.65699e-07
0.000103969
8.19563e-07
0.000103739
8.83548e-07
0.00010349
9.59567e-07
0.000103219
1.04999e-06
0.000102921
1.15775e-06
0.000102592
1.28655e-06
0.000102226
1.44104e-06
0.000101817
1.62712e-06
0.000101357
1.85235e-06
0.000100838
2.12647e-06
0.000100249
2.46207e-06
9.95795e-05
2.8755e-06
9.8818e-05
3.38799e-06
9.79537e-05
4.0269e-06
9.69798e-05
4.82689e-06
9.58989e-05
5.83029e-06
9.47323e-05
7.08497e-06
9.35365e-05
8.63636e-06
9.2426e-05
1.05068e-05
9.15998e-05
1.26513e-05
9.13281e-05
1.48699e-05
1.66677e-05
9.17288e-05
0.000121994
1.91072e-07
0.000121881
5.66417e-07
0.000121688
9.36767e-07
0.000121447
1.13537e-06
0.000121197
1.13932e-06
0.000120965
1.03199e-06
0.000120756
9.07354e-07
0.000120566
8.17397e-07
0.000120386
7.71893e-07
0.000120211
7.59306e-07
0.000120036
7.64409e-07
0.00011986
7.76131e-07
0.000119682
7.88603e-07
0.000119502
7.99579e-07
0.00011932
8.08689e-07
0.000119137
8.16242e-07
0.000118953
8.22678e-07
0.000118768
8.28341e-07
0.000118582
8.33442e-07
0.000118395
8.38078e-07
0.000118207
8.42257e-07
0.000118019
8.45927e-07
0.00011783
8.48986e-07
0.000117641
8.51314e-07
0.000117452
8.52773e-07
0.000117263
8.5323e-07
0.000117074
8.52572e-07
0.000116886
8.5071e-07
0.000116699
8.47589e-07
0.000116512
8.43187e-07
0.000116328
8.37529e-07
0.000116145
8.30676e-07
0.000115963
8.22732e-07
0.000115784
8.13832e-07
0.000115607
8.04143e-07
0.000115433
7.93856e-07
0.00011526
7.83188e-07
0.000115091
7.72367e-07
0.000114923
7.61633e-07
0.000114758
7.51235e-07
0.000114596
7.41423e-07
0.000114435
7.32448e-07
0.000114276
7.24563e-07
0.000114119
7.18018e-07
0.000113963
7.13064e-07
0.000113807
7.09952e-07
0.000113652
7.08935e-07
0.000113497
7.10278e-07
0.00011334
7.14259e-07
0.000113183
7.21177e-07
0.000113023
7.31363e-07
0.000112861
7.45192e-07
0.000112695
7.63096e-07
0.000112524
7.85577e-07
0.000112347
8.13233e-07
0.000112163
8.46774e-07
0.000111972
8.87052e-07
0.00011177
9.35093e-07
0.000111557
9.92138e-07
0.00011133
1.05969e-06
0.000111088
1.13957e-06
0.000110828
1.234e-06
0.000110546
1.34571e-06
0.00011024
1.47801e-06
0.000109906
1.63501e-06
0.00010954
1.82179e-06
0.000109138
2.04463e-06
0.000108693
2.31137e-06
0.000108203
2.63178e-06
0.000107662
3.018e-06
0.000107068
3.48511e-06
0.000106419
4.0516e-06
0.000105722
4.73972e-06
0.000104989
5.57515e-06
0.000104249
6.58553e-06
0.000103553
7.79606e-06
0.000102984
9.22016e-06
0.000102664
1.08415e-05
0.000102747
1.2584e-05
0.000103362
1.42694e-05
1.55799e-05
0.000104465
0.000130545
2.22393e-07
0.00013044
6.71966e-07
0.000130253
1.12331e-06
0.000130013
1.37603e-06
0.000129756
1.39596e-06
0.00012951
1.27765e-06
0.000129285
1.13239e-06
0.000129079
1.02408e-06
0.000128884
9.6683e-07
0.000128695
9.48635e-07
0.000128507
9.52137e-07
0.000128319
9.64312e-07
0.00012813
9.78037e-07
0.000127939
9.90446e-07
0.000127747
1.00092e-06
0.000127554
1.00971e-06
0.00012736
1.01727e-06
0.000127165
1.02396e-06
0.000126969
1.03002e-06
0.000126773
1.03554e-06
0.000126575
1.04053e-06
0.000126377
1.04492e-06
0.000126179
1.04858e-06
0.00012598
1.05138e-06
0.000125782
1.05314e-06
0.000125583
1.05372e-06
0.000125385
1.05298e-06
0.000125187
1.05081e-06
0.000124991
1.04715e-06
0.000124795
1.04198e-06
0.0001246
1.03532e-06
0.000124408
1.02725e-06
0.000124216
1.0179e-06
0.000124027
1.00742e-06
0.00012384
9.96021e-07
0.000123655
9.83928e-07
0.000123473
9.71399e-07
0.000123292
9.5871e-07
0.000123114
9.4615e-07
0.000122939
9.34016e-07
0.000122765
9.22607e-07
0.000122593
9.1223e-07
0.000122422
9.03185e-07
0.000122253
8.95774e-07
0.000122085
8.90298e-07
0.000121918
8.87059e-07
0.00012175
8.86362e-07
0.000121582
8.8852e-07
0.000121414
8.93867e-07
0.000121243
9.02758e-07
0.000121071
9.15584e-07
0.000120895
9.32787e-07
0.000120716
9.54869e-07
0.000120531
9.82417e-07
0.000120342
1.01612e-06
0.000120145
1.05679e-06
0.00011994
1.1054e-06
0.000119726
1.16311e-06
0.000119501
1.2313e-06
0.000119264
1.31164e-06
0.000119012
1.40612e-06
0.000118744
1.51713e-06
0.000118457
1.64754e-06
0.00011815
1.80083e-06
0.000117819
1.98116e-06
0.000117463
2.19357e-06
0.000117079
2.44412e-06
0.000116666
2.74008e-06
0.000116224
3.09018e-06
0.000115753
3.50474e-06
0.000115259
3.99586e-06
0.000114749
4.57731e-06
0.000114241
5.26418e-06
0.000113761
6.07172e-06
0.000113349
7.0131e-06
0.000113067
8.09494e-06
0.000112993
9.30983e-06
0.000113226
1.06247e-05
0.000113861
1.19651e-05
0.000114946
1.32004e-05
1.41426e-05
0.0001164
0.000139697
2.48639e-07
0.000139601
7.67284e-07
0.000139425
1.29925e-06
0.000139189
1.61198e-06
0.000138929
1.65683e-06
0.000138671
1.53527e-06
0.00013843
1.37375e-06
0.000138206
1.24825e-06
0.000137994
1.17844e-06
0.00013779
1.15303e-06
0.000137589
1.15334e-06
0.000137389
1.16469e-06
0.000137188
1.17875e-06
0.000136987
1.19196e-06
0.000136785
1.20339e-06
0.000136582
1.21314e-06
0.000136378
1.22163e-06
0.000136173
1.22922e-06
0.000135968
1.23611e-06
0.000135762
1.24243e-06
0.000135555
1.24814e-06
0.000135348
1.25318e-06
0.000135141
1.25739e-06
0.000134933
1.26062e-06
0.000134725
1.26267e-06
0.000134518
1.26336e-06
0.000134311
1.26255e-06
0.000134104
1.26012e-06
0.000133898
1.25599e-06
0.000133693
1.25014e-06
0.000133489
1.2426e-06
0.000133287
1.23347e-06
0.000133086
1.22288e-06
0.000132888
1.21102e-06
0.000132691
1.19812e-06
0.000132496
1.18446e-06
0.000132303
1.17032e-06
0.000132112
1.15603e-06
0.000131923
1.14191e-06
0.000131736
1.12831e-06
0.000131551
1.11559e-06
0.000131367
1.10408e-06
0.000131185
1.09415e-06
0.000131004
1.08614e-06
0.000130824
1.08039e-06
0.000130644
1.07726e-06
0.000130464
1.0771e-06
0.000130283
1.08027e-06
0.000130101
1.08715e-06
0.000129918
1.09814e-06
0.000129732
1.11368e-06
0.000129543
1.13428e-06
0.000129351
1.16049e-06
0.000129154
1.19296e-06
0.000128952
1.23244e-06
0.000128743
1.27983e-06
0.000128527
1.33616e-06
0.000128302
1.40268e-06
0.000128068
1.48083e-06
0.000127822
1.57234e-06
0.000127565
1.67925e-06
0.000127294
1.80396e-06
0.000127009
1.9493e-06
0.000126707
2.11859e-06
0.000126389
2.31572e-06
0.000126054
2.54525e-06
0.000125703
2.81246e-06
0.000125336
3.12341e-06
0.000124958
3.48498e-06
0.000124575
3.90484e-06
0.000124197
4.39124e-06
0.000123839
4.95264e-06
0.000123524
5.59697e-06
0.000123282
6.3303e-06
0.000123158
7.15471e-06
0.000123205
8.06498e-06
0.000123489
9.04387e-06
0.000124074
1.00561e-05
0.000125014
1.10423e-05
0.000126316
1.19161e-05
1.25713e-05
0.000127904
0.000149489
2.69189e-07
0.000149406
8.50165e-07
0.000149244
1.46111e-06
0.000149017
1.83949e-06
0.000148755
1.91902e-06
0.000148487
1.80324e-06
0.00014823
1.63103e-06
0.000147988
1.49025e-06
0.000147759
1.40735e-06
0.000147539
1.37316e-06
0.000147324
1.36854e-06
0.000147111
1.37758e-06
0.000146899
1.39089e-06
0.000146687
1.40415e-06
0.000146475
1.416e-06
0.000146262
1.42636e-06
0.000146049
1.43552e-06
0.000145835
1.44379e-06
0.000145621
1.45138e-06
0.000145406
1.45835e-06
0.00014519
1.46468e-06
0.000144974
1.47027e-06
0.000144758
1.47496e-06
0.000144542
1.47855e-06
0.000144326
1.48085e-06
0.00014411
1.48165e-06
0.000143894
1.48079e-06
0.000143679
1.47814e-06
0.000143464
1.47362e-06
0.000143251
1.46721e-06
0.000143038
1.45894e-06
0.000142827
1.44893e-06
0.000142617
1.43732e-06
0.000142409
1.42433e-06
0.000142202
1.41021e-06
0.000141997
1.39527e-06
0.000141794
1.37983e-06
0.000141593
1.36425e-06
0.000141393
1.34891e-06
0.000141195
1.33418e-06
0.000140999
1.32046e-06
0.000140803
1.30814e-06
0.000140609
1.29762e-06
0.000140416
1.28929e-06
0.000140223
1.28353e-06
0.000140031
1.28074e-06
0.000139838
1.2813e-06
0.000139644
1.28562e-06
0.00013945
1.29411e-06
0.000139253
1.30722e-06
0.000139055
1.32543e-06
0.000138853
1.34926e-06
0.000138649
1.37932e-06
0.00013844
1.4163e-06
0.000138226
1.46097e-06
0.000138007
1.51426e-06
0.000137781
1.57723e-06
0.000137549
1.65113e-06
0.000137308
1.73738e-06
0.000137059
1.83768e-06
0.000136801
1.95397e-06
0.000136534
2.08849e-06
0.000136256
2.24381e-06
0.00013597
2.42286e-06
0.000135674
2.62895e-06
0.000135371
2.86581e-06
0.000135064
3.13754e-06
0.000134757
3.44858e-06
0.000134457
3.8036e-06
0.000134172
4.20733e-06
0.000133918
4.66421e-06
0.000133711
5.17788e-06
0.000133576
5.75043e-06
0.000133543
6.38131e-06
0.000133651
7.06577e-06
0.000133941
7.79291e-06
0.00013446
8.54328e-06
0.000135248
9.28659e-06
0.000136329
9.98022e-06
0.000137692
1.05705e-05
1.09993e-05
0.000139282
0.000159967
2.83994e-07
0.000159898
9.19618e-07
0.000159752
1.6068e-06
0.000159536
2.05575e-06
0.000159275
2.17973e-06
0.000158999
2.07942e-06
0.000158727
1.90295e-06
0.000158468
1.74956e-06
0.000158222
1.65355e-06
0.000157986
1.60921e-06
0.000157757
1.59794e-06
0.000157531
1.60317e-06
0.000157308
1.61452e-06
0.000157086
1.62697e-06
0.000156863
1.63864e-06
0.000156641
1.64915e-06
0.000156419
1.65866e-06
0.000156196
1.66738e-06
0.000155972
1.67545e-06
0.000155749
1.68291e-06
0.000155525
1.68972e-06
0.000155301
1.69575e-06
0.000155077
1.70082e-06
0.000154852
1.70471e-06
0.000154628
1.70721e-06
0.000154404
1.70811e-06
0.00015418
1.70722e-06
0.000153957
1.70441e-06
0.000153734
1.6996e-06
0.000153512
1.69276e-06
0.000153291
1.68395e-06
0.000153071
1.67328e-06
0.000152853
1.66091e-06
0.000152635
1.64707e-06
0.000152419
1.63205e-06
0.000152205
1.61617e-06
0.000151991
1.59978e-06
0.00015178
1.58329e-06
0.000151569
1.56708e-06
0.00015136
1.55158e-06
0.000151153
1.53722e-06
0.000150946
1.52442e-06
0.00015074
1.51362e-06
0.000150534
1.50524e-06
0.000150329
1.4997e-06
0.000150124
1.49742e-06
0.000149918
1.49883e-06
0.000149712
1.50435e-06
0.000149505
1.51443e-06
0.000149296
1.52952e-06
0.000149086
1.55015e-06
0.000148873
1.57684e-06
0.000148657
1.61021e-06
0.000148437
1.65095e-06
0.000148214
1.69984e-06
0.000147987
1.75777e-06
0.000147755
1.82577e-06
0.000147518
1.90501e-06
0.000147276
1.99685e-06
0.000147028
2.10279e-06
0.000146775
2.22456e-06
0.000146518
2.36408e-06
0.000146256
2.52351e-06
0.000145993
2.70517e-06
0.000145729
2.91159e-06
0.000145468
3.14545e-06
0.000145215
3.40949e-06
0.000144977
3.70641e-06
0.000144761
4.03869e-06
0.000144579
4.40836e-06
0.000144446
4.81666e-06
0.00014438
5.26356e-06
0.000144403
5.74719e-06
0.000144541
6.2631e-06
0.000144823
6.80339e-06
0.00014528
7.35578e-06
0.00014594
7.90276e-06
0.000146825
8.42113e-06
0.000147942
8.88233e-06
0.000149278
9.25437e-06
9.5059e-06
0.000150791
0.000171179
2.93551e-07
0.000171122
9.75937e-07
0.000170993
1.7358e-06
0.00017079
2.25906e-06
0.000170533
2.43648e-06
0.000170252
2.36127e-06
0.000169967
2.18746e-06
0.000169692
2.02483e-06
0.000169429
1.91629e-06
0.000169178
1.86085e-06
0.000168934
1.84146e-06
0.000168696
1.8414e-06
0.000168462
1.84961e-06
0.000168229
1.86033e-06
0.000167997
1.87114e-06
0.000167765
1.88132e-06
0.000167533
1.8908e-06
0.000167302
1.89967e-06
0.00016707
1.908e-06
0.000166838
1.91577e-06
0.000166606
1.9229e-06
0.000166374
1.92924e-06
0.000166142
1.93458e-06
0.00016591
1.9387e-06
0.000165678
1.94135e-06
0.000165446
1.94233e-06
0.000165215
1.94144e-06
0.000164984
1.93855e-06
0.000164754
1.93356e-06
0.000164524
1.92646e-06
0.000164295
1.91731e-06
0.000164067
1.90622e-06
0.000163839
1.89337e-06
0.000163613
1.879e-06
0.000163388
1.86342e-06
0.000163164
1.84697e-06
0.000162941
1.83002e-06
0.000162719
1.81299e-06
0.000162498
1.7963e-06
0.000162278
1.7804e-06
0.000162059
1.76575e-06
0.000161841
1.7528e-06
0.000161623
1.74199e-06
0.000161405
1.73379e-06
0.000161188
1.72865e-06
0.000160971
1.72699e-06
0.000160753
1.72926e-06
0.000160535
1.7359e-06
0.000160316
1.74737e-06
0.000160096
1.76414e-06
0.000159874
1.78671e-06
0.000159651
1.8156e-06
0.000159425
1.85142e-06
0.000159198
1.89482e-06
0.000158968
1.94653e-06
0.000158736
2.00737e-06
0.000158501
2.07827e-06
0.000158263
2.16026e-06
0.000158024
2.2545e-06
0.000157783
2.36226e-06
0.000157542
2.48493e-06
0.000157301
2.62401e-06
0.000157063
2.78108e-06
0.00015683
2.95778e-06
0.000156606
3.15575e-06
0.000156395
3.37657e-06
0.000156203
3.62163e-06
0.000156038
3.89203e-06
0.000155909
4.18839e-06
0.000155827
4.51062e-06
0.000155807
4.85765e-06
0.000155864
5.22711e-06
0.000156017
5.61497e-06
0.000156286
6.01512e-06
0.000156691
6.41907e-06
0.000157252
6.81562e-06
0.000157985
7.1908e-06
0.000158899
7.5281e-06
0.000159993
7.80931e-06
0.000161252
8.01593e-06
8.13146e-06
0.000162647
0.000183174
2.98772e-07
0.000183129
1.02048e-06
0.000183016
1.84892e-06
0.000182826
2.44889e-06
0.000182576
2.68737e-06
0.000182291
2.64616e-06
0.000181996
2.48199e-06
0.000181707
2.31402e-06
0.000181429
2.19421e-06
0.000181163
2.12727e-06
0.000180906
2.09863e-06
0.000180656
2.09203e-06
0.00018041
2.09597e-06
0.000180166
2.10405e-06
0.000179925
2.11332e-06
0.000179684
2.12265e-06
0.000179444
2.1317e-06
0.000179204
2.14041e-06
0.000178964
2.14874e-06
0.000178724
2.15662e-06
0.000178484
2.16391e-06
0.000178245
2.17042e-06
0.000178005
2.17593e-06
0.000177766
2.1802e-06
0.000177526
2.18298e-06
0.000177287
2.18404e-06
0.000177049
2.18319e-06
0.00017681
2.18029e-06
0.000176572
2.17525e-06
0.000176335
2.16807e-06
0.000176098
2.15879e-06
0.000175862
2.14755e-06
0.000175626
2.13452e-06
0.000175391
2.11995e-06
0.000175157
2.10417e-06
0.000174923
2.08752e-06
0.000174691
2.07038e-06
0.000174459
2.05319e-06
0.000174227
2.03639e-06
0.000173997
2.02044e-06
0.000173767
2.00581e-06
0.000173537
1.99297e-06
0.000173308
1.98239e-06
0.000173079
1.97453e-06
0.00017285
1.96985e-06
0.000172622
1.96879e-06
0.000172393
1.97181e-06
0.000172163
1.97934e-06
0.000171934
1.99182e-06
0.000171703
2.00971e-06
0.000171472
2.03349e-06
0.000171241
2.06364e-06
0.000171008
2.10071e-06
0.000170775
2.14528e-06
0.000170541
2.198e-06
0.000170308
2.25956e-06
0.000170074
2.33072e-06
0.000169841
2.41234e-06
0.000169609
2.5053e-06
0.000169381
2.61056e-06
0.000169157
2.72911e-06
0.000168939
2.86195e-06
0.000168731
3.01006e-06
0.000168535
3.17434e-06
0.000168356
3.35559e-06
0.0001682
3.55435e-06
0.000168072
3.77087e-06
0.000167981
4.00496e-06
0.000167935
4.25586e-06
0.000167946
4.52204e-06
0.000168024
4.80109e-06
0.000168184
5.08946e-06
0.000168439
5.38236e-06
0.000168803
5.67359e-06
0.000169288
5.95549e-06
0.000169907
6.21897e-06
0.000170666
6.45375e-06
0.000171568
6.64878e-06
0.000172606
6.7929e-06
0.000173768
6.87577e-06
6.88905e-06
0.000175033
0.000196008
3.00752e-07
0.000195973
1.05529e-06
0.000195874
1.94804e-06
0.000195697
2.62575e-06
0.000195453
2.93115e-06
0.000195168
2.93164e-06
0.000194866
2.78376e-06
0.000194566
2.61467e-06
0.000194275
2.48543e-06
0.000193995
2.40721e-06
0.000193725
2.36867e-06
0.000193463
2.35457e-06
0.000193206
2.35329e-06
0.000192952
2.35791e-06
0.000192701
2.36496e-06
0.000192451
2.3729e-06
0.000192203
2.38112e-06
0.000191955
2.38935e-06
0.000191707
2.39743e-06
0.00019146
2.4052e-06
0.000191212
2.41248e-06
0.000190965
2.41904e-06
0.000190719
2.42463e-06
0.000190472
2.42899e-06
0.000190225
2.43187e-06
0.000189979
2.43303e-06
0.000189733
2.43228e-06
0.000189488
2.42948e-06
0.000189242
2.42454e-06
0.000188997
2.41746e-06
0.000188753
2.40828e-06
0.000188508
2.39714e-06
0.000188265
2.38423e-06
0.000188021
2.3698e-06
0.000187778
2.35415e-06
0.000187536
2.33764e-06
0.000187293
2.32067e-06
0.000187052
2.30366e-06
0.00018681
2.28707e-06
0.000186569
2.27136e-06
0.000186329
2.25699e-06
0.000186089
2.24446e-06
0.000185849
2.23422e-06
0.000185609
2.22674e-06
0.000185369
2.22248e-06
0.00018513
2.22186e-06
0.000184891
2.22533e-06
0.000184652
2.2333e-06
0.000184413
2.24618e-06
0.000184175
2.26439e-06
0.000183937
2.28835e-06
0.000183699
2.3185e-06
0.000183462
2.35528e-06
0.000183227
2.39917e-06
0.000182993
2.45069e-06
0.000182761
2.51037e-06
0.000182533
2.57879e-06
0.000182309
2.65653e-06
0.000182091
2.74419e-06
0.00018188
2.84238e-06
0.000181679
2.95165e-06
0.00018149
3.0725e-06
0.000181316
3.20534e-06
0.000181162
3.35039e-06
0.000181033
3.5077e-06
0.000180933
3.67699e-06
0.000180869
3.85765e-06
0.000180848
4.04858e-06
0.000180879
4.24816e-06
0.00018097
4.4541e-06
0.000181131
4.66341e-06
0.000181372
4.87228e-06
0.000181701
5.07606e-06
0.000182129
5.26931e-06
0.000182662
5.44583e-06
0.000183306
5.59883e-06
0.000184062
5.72122e-06
0.000184928
5.80597e-06
0.000185898
5.84657e-06
0.000186959
5.83752e-06
5.77494e-06
0.000188097
0.00020974
3.00572e-07
0.000209712
1.08266e-06
0.000209625
2.03558e-06
0.00020946
2.79086e-06
0.000209224
3.16724e-06
0.00020894
3.21568e-06
0.000208633
3.09007e-06
0.000208324
2.92416e-06
0.000208022
2.78784e-06
0.00020773
2.69913e-06
0.000207448
2.65054e-06
0.000207175
2.62833e-06
0.000206907
2.62108e-06
0.000206644
2.62153e-06
0.000206384
2.62576e-06
0.000206125
2.63182e-06
0.000205869
2.6388e-06
0.000205613
2.64623e-06
0.000205357
2.65382e-06
0.000205102
2.6613e-06
0.000204848
2.66842e-06
0.000204594
2.67491e-06
0.00020434
2.68051e-06
0.000204086
2.68493e-06
0.000203833
2.6879e-06
0.000203579
2.6892e-06
0.000203326
2.68862e-06
0.000203074
2.68603e-06
0.000202821
2.68135e-06
0.000202569
2.67456e-06
0.000202316
2.66571e-06
0.000202064
2.65494e-06
0.000201812
2.64241e-06
0.00020156
2.6284e-06
0.000201309
2.61318e-06
0.000201057
2.59713e-06
0.000200806
2.58061e-06
0.000200555
2.56406e-06
0.000200304
2.54791e-06
0.000200053
2.53262e-06
0.000199802
2.51867e-06
0.000199552
2.50651e-06
0.000199302
2.49661e-06
0.000199053
2.4894e-06
0.000198804
2.48533e-06
0.000198556
2.48481e-06
0.000198308
2.48823e-06
0.000198061
2.49597e-06
0.000197815
2.50839e-06
0.000197571
2.52585e-06
0.000197328
2.54869e-06
0.000197088
2.57725e-06
0.00019685
2.61188e-06
0.000196616
2.65292e-06
0.000196386
2.70072e-06
0.000196161
2.75564e-06
0.000195942
2.81802e-06
0.000195732
2.88818e-06
0.000195532
2.96641e-06
0.000195343
3.05297e-06
0.000195169
3.14799e-06
0.000195013
3.25154e-06
0.000194878
3.36349e-06
0.000194768
3.48356e-06
0.000194688
3.61118e-06
0.000194644
3.74553e-06
0.00019464
3.8854e-06
0.000194684
4.02922e-06
0.000194781
4.17496e-06
0.00019494
4.32009e-06
0.000195166
4.4616e-06
0.000195467
4.59599e-06
0.000195849
4.71926e-06
0.000196316
4.82705e-06
0.000196872
4.91473e-06
0.000197518
4.97758e-06
0.000198253
5.01098e-06
0.000199073
5.01071e-06
0.000199971
4.97323e-06
0.000200937
4.8959e-06
4.77724e-06
0.00020196
0.000224432
2.99181e-07
0.00022441
1.10484e-06
0.000224331
2.11411e-06
0.000224176
2.94589e-06
0.000223948
3.39564e-06
0.000223667
3.49674e-06
0.000223359
3.39852e-06
0.000223043
3.23995e-06
0.000222732
3.09921e-06
0.00022243
3.00129e-06
0.000222137
2.94296e-06
0.000221854
2.91241e-06
0.000221576
2.89871e-06
0.000221304
2.89446e-06
0.000221035
2.89535e-06
0.000220768
2.89909e-06
0.000220503
2.90447e-06
0.00022024
2.91082e-06
0.000219977
2.91767e-06
0.000219715
2.92468e-06
0.000219453
2.93151e-06
0.000219192
2.93786e-06
0.000218931
2.94341e-06
0.000218671
2.94787e-06
0.000218411
2.95097e-06
0.00021815
2.95246e-06
0.00021789
2.95215e-06
0.00021763
2.9499e-06
0.00021737
2.94563e-06
0.000217111
2.93932e-06
0.000216851
2.93101e-06
0.000216591
2.92082e-06
0.000216331
2.90893e-06
0.000216071
2.89557e-06
0.000215811
2.88103e-06
0.000215551
2.86564e-06
0.00021529
2.84978e-06
0.00021503
2.83385e-06
0.00021477
2.81827e-06
0.000214511
2.80349e-06
0.000214251
2.78995e-06
0.000213992
2.77809e-06
0.000213734
2.76834e-06
0.000213476
2.76112e-06
0.000213219
2.75683e-06
0.000212963
2.75583e-06
0.000212709
2.75848e-06
0.000212457
2.76507e-06
0.000212206
2.77592e-06
0.000211959
2.79129e-06
0.000211715
2.81142e-06
0.000211475
2.83656e-06
0.00021124
2.86692e-06
0.00021101
2.90268e-06
0.000210788
2.94404e-06
0.000210574
2.99114e-06
0.00021037
3.0441e-06
0.000210177
3.10299e-06
0.000209999
3.1678e-06
0.000209837
3.23846e-06
0.000209694
3.31478e-06
0.000209573
3.39643e-06
0.000209478
3.48292e-06
0.000209412
3.57355e-06
0.000209381
3.66741e-06
0.000209389
3.76332e-06
0.00020944
3.85983e-06
0.000209539
3.95515e-06
0.000209693
4.04723e-06
0.000209905
4.13366e-06
0.000210181
4.21177e-06
0.000210524
4.27861e-06
0.000210939
4.33105e-06
0.000211426
4.36585e-06
0.000211987
4.37978e-06
0.000212621
4.36974e-06
0.000213326
4.33295e-06
0.000214095
4.26708e-06
0.000214924
4.17042e-06
0.000215804
4.042e-06
3.8816e-06
0.000216726
0.000240153
2.973e-07
0.000240134
1.12377e-06
0.000240062
2.1861e-06
0.000239915
3.09265e-06
0.000239694
3.61676e-06
0.000239417
3.77377e-06
0.000239109
3.70713e-06
0.000238789
3.55972e-06
0.000238471
3.41734e-06
0.000238161
3.31185e-06
0.000237859
3.2445e-06
0.000237566
3.20572e-06
0.00023728
3.18536e-06
0.000236999
3.17604e-06
0.000236722
3.17322e-06
0.000236447
3.17428e-06
0.000236175
3.17776e-06
0.000235904
3.18277e-06
0.000235634
3.1887e-06
0.000235365
3.19509e-06
0.000235096
3.20154e-06
0.000234828
3.20768e-06
0.000234561
3.21317e-06
0.000234293
3.21769e-06
0.000234026
3.22095e-06
0.000233759
3.22272e-06
0.000233492
3.22278e-06
0.000233225
3.221e-06
0.000232958
3.21729e-06
0.000232691
3.21161e-06
0.000232424
3.20402e-06
0.000232156
3.1946e-06
0.000231889
3.18351e-06
0.000231621
3.17098e-06
0.000231353
3.15725e-06
0.000231084
3.14266e-06
0.000230816
3.12754e-06
0.000230548
3.11227e-06
0.00023028
3.09725e-06
0.000230012
3.08289e-06
0.000229745
3.0696e-06
0.000229478
3.05778e-06
0.000229213
3.04783e-06
0.000228948
3.04011e-06
0.000228686
3.03497e-06
0.000228425
3.03271e-06
0.000228167
3.03361e-06
0.000227911
3.03792e-06
0.00022766
3.04584e-06
0.000227412
3.05754e-06
0.00022717
3.07317e-06
0.000226934
3.09284e-06
0.000226705
3.11662e-06
0.000226485
3.14456e-06
0.000226274
3.17666e-06
0.000226075
3.21289e-06
0.000225889
3.25316e-06
0.000225718
3.29729e-06
0.000225565
3.34505e-06
0.000225432
3.3961e-06
0.000225322
3.44999e-06
0.000225237
3.50611e-06
0.000225182
3.56374e-06
0.00022516
3.62195e-06
0.000225174
3.67963e-06
0.000225228
3.73549e-06
0.000225326
3.78803e-06
0.000225473
3.83554e-06
0.000225671
3.87613e-06
0.000225924
3.90775e-06
0.000226235
3.9282e-06
0.000226606
3.93522e-06
0.000227038
3.9265e-06
0.000227532
3.89979e-06
0.000228086
3.853e-06
0.000228699
3.78426e-06
0.000229367
3.69205e-06
0.000230087
3.57526e-06
0.000230851
3.43333e-06
0.000231654
3.26621e-06
3.07434e-06
0.000232489
0.000256974
2.95461e-07
0.000256957
1.14105e-06
0.000256889
2.25368e-06
0.000256749
3.23293e-06
0.000256534
3.83127e-06
0.000256262