/*--------------------------------*- C++ -*----------------------------------*\
| =========                 |                                                 |
| \\      /  F ield         | OpenFOAM: The Open Source CFD Toolbox           |
|  \\    /   O peration     | Version:  2106                                  |
|   \\  /    A nd           | Website:  www.openfoam.com                      |
|    \\/     M anipulation  |                                                 |
\*---------------------------------------------------------------------------*/
FoamFile
{
    version     2.0;
    format      ascii;
    arch        "LSB;label=32;scalar=64";
    class       volScalarField;
    location    "0.4";
    object      T;
}
// * * * * * * * * * * * * * * * * * * * * * * * * * * * * * * * * * * * * * //

dimensions      [0 0 0 1 0 0 0];

internalField   nonuniform List<scalar> 
12013
(
300
300
300
300
300
300
300
300
300
300
300
300
300
300
300.001
300.001
300.001
300.001
300.002
300.002
300.003
300.004
300.005
300.006
300.007
300.008
300.01
300.012
300.014
300.016
300.019
300.022
300.026
300.03
300.034
300.039
300.045
300.051
300.058
300.065
300.073
300.082
300.092
300.102
300.113
300.126
300.139
300.153
300.168
300.184
300.201
300.22
300.239
300.26
300.282
300.306
300.331
300.357
300.385
300.414
300.445
300.477
300.511
300.547
300.585
300.625
300.667
300.711
300.758
300.807
300.859
300.914
300.972
301.034
301.101
301.172
301.25
301.335
301.43
301.54
301.673
300
300
300
300
300
300
300
300
300
300
300
300
300
300
300.001
300.001
300.001
300.001
300.002
300.002
300.003
300.004
300.005
300.006
300.007
300.008
300.01
300.012
300.014
300.016
300.019
300.022
300.026
300.03
300.034
300.039
300.045
300.051
300.058
300.065
300.073
300.082
300.092
300.102
300.113
300.125
300.139
300.153
300.168
300.184
300.201
300.22
300.239
300.26
300.282
300.306
300.33
300.357
300.384
300.413
300.444
300.477
300.511
300.547
300.584
300.624
300.666
300.71
300.756
300.805
300.857
300.912
300.97
301.031
301.097
301.168
301.244
301.327
301.418
301.519
301.632
300
300
300
300
300
300
300
300
300
300
300
300
300
300
300.001
300.001
300.001
300.001
300.002
300.002
300.003
300.004
300.005
300.006
300.007
300.008
300.01
300.012
300.014
300.016
300.019
300.022
300.026
300.03
300.034
300.039
300.045
300.051
300.058
300.065
300.073
300.082
300.091
300.102
300.113
300.125
300.138
300.152
300.168
300.184
300.201
300.219
300.239
300.26
300.282
300.305
300.33
300.356
300.383
300.413
300.443
300.475
300.509
300.545
300.583
300.622
300.664
300.707
300.754
300.802
300.853
300.907
300.964
301.025
301.089
301.158
301.231
301.31
301.394
301.484
301.579
300
300
300
300
300
300
300
300
300
300
300
300
300
300
300.001
300.001
300.001
300.001
300.002
300.002
300.003
300.004
300.005
300.006
300.007
300.008
300.01
300.012
300.014
300.016
300.019
300.022
300.026
300.03
300.034
300.039
300.045
300.051
300.057
300.065
300.073
300.082
300.091
300.102
300.113
300.125
300.138
300.152
300.167
300.183
300.2
300.219
300.238
300.259
300.281
300.304
300.329
300.355
300.382
300.411
300.441
300.474
300.507
300.543
300.58
300.619
300.66
300.703
300.749
300.797
300.847
300.9
300.956
301.014
301.077
301.142
301.212
301.285
301.362
301.441
301.522
300
300
300
300
300
300
300
300
300
300
300
300
300
300
300.001
300.001
300.001
300.001
300.002
300.002
300.003
300.004
300.005
300.006
300.007
300.008
300.01
300.012
300.014
300.016
300.019
300.022
300.026
300.03
300.034
300.039
300.045
300.051
300.057
300.065
300.073
300.081
300.091
300.101
300.113
300.125
300.138
300.152
300.167
300.183
300.2
300.218
300.237
300.258
300.28
300.303
300.327
300.353
300.38
300.409
300.439
300.471
300.504
300.539
300.576
300.615
300.655
300.698
300.742
300.789
300.838
300.889
300.943
301
301.059
301.121
301.186
301.254
301.323
301.393
301.463
300
300
300
300
300
300
300
300
300
300
300
300
300
300
300.001
300.001
300.001
300.001
300.002
300.002
300.003
300.004
300.005
300.006
300.007
300.008
300.01
300.012
300.014
300.016
300.019
300.022
300.026
300.03
300.034
300.039
300.044
300.05
300.057
300.064
300.072
300.081
300.091
300.101
300.112
300.124
300.137
300.151
300.166
300.182
300.199
300.217
300.236
300.256
300.278
300.301
300.325
300.351
300.377
300.406
300.436
300.467
300.5
300.534
300.571
300.608
300.648
300.69
300.733
300.779
300.826
300.876
300.928
300.982
301.038
301.096
301.156
301.217
301.28
301.342
301.404
300
300
300
300
300
300
300
300
300
300
300
300
300
300
300.001
300.001
300.001
300.001
300.002
300.002
300.003
300.004
300.005
300.006
300.007
300.008
300.01
300.012
300.014
300.016
300.019
300.022
300.025
300.029
300.034
300.039
300.044
300.05
300.057
300.064
300.072
300.081
300.09
300.1
300.111
300.123
300.136
300.15
300.165
300.18
300.197
300.215
300.234
300.254
300.276
300.298
300.322
300.347
300.374
300.402
300.431
300.462
300.494
300.528
300.564
300.601
300.639
300.68
300.722
300.766
300.811
300.859
300.908
300.959
301.011
301.065
301.121
301.177
301.233
301.289
301.344
300
300
300
300
300
300
300
300
300
300
300
300
300
300
300.001
300.001
300.001
300.001
300.002
300.002
300.003
300.004
300.004
300.005
300.007
300.008
300.01
300.011
300.014
300.016
300.019
300.022
300.025
300.029
300.034
300.038
300.044
300.05
300.056
300.064
300.071
300.08
300.089
300.099
300.11
300.122
300.135
300.149
300.163
300.179
300.195
300.213
300.232
300.252
300.273
300.295
300.319
300.343
300.369
300.397
300.426
300.456
300.487
300.52
300.555
300.591
300.628
300.667
300.708
300.75
300.793
300.838
300.885
300.932
300.981
301.031
301.082
301.133
301.183
301.234
301.283
300
300
300
300
300
300
300
300
300
300
300
300
300
300
300.001
300.001
300.001
300.001
300.002
300.002
300.003
300.004
300.004
300.005
300.007
300.008
300.01
300.011
300.013
300.016
300.019
300.022
300.025
300.029
300.033
300.038
300.043
300.049
300.056
300.063
300.071
300.079
300.088
300.098
300.109
300.121
300.133
300.147
300.161
300.177
300.193
300.21
300.229
300.249
300.269
300.291
300.314
300.338
300.364
300.391
300.419
300.448
300.479
300.511
300.544
300.579
300.615
300.652
300.691
300.731
300.772
300.814
300.858
300.902
300.948
300.993
301.039
301.086
301.131
301.177
301.221
300
300
300
300
300
300
300
300
300
300
300
300
300
300
300.001
300.001
300.001
300.001
300.002
300.002
300.003
300.004
300.004
300.005
300.007
300.008
300.009
300.011
300.013
300.016
300.018
300.021
300.025
300.029
300.033
300.038
300.043
300.049
300.055
300.062
300.07
300.078
300.087
300.097
300.108
300.119
300.132
300.145
300.159
300.174
300.19
300.207
300.225
300.245
300.265
300.286
300.309
300.332
300.357
300.383
300.41
300.439
300.468
300.499
300.531
300.564
300.599
300.634
300.671
300.709
300.748
300.787
300.828
300.869
300.91
300.952
300.994
301.036
301.078
301.119
301.159
300
300
300
300
300
300
300
300
300
300
300
300
300
300
300.001
300.001
300.001
300.001
300.002
300.002
300.003
300.004
300.004
300.005
300.006
300.008
300.009
300.011
300.013
300.016
300.018
300.021
300.025
300.028
300.033
300.037
300.042
300.048
300.054
300.061
300.069
300.077
300.086
300.096
300.106
300.118
300.13
300.143
300.156
300.171
300.187
300.204
300.221
300.24
300.26
300.28
300.302
300.325
300.349
300.374
300.4
300.428
300.456
300.486
300.516
300.548
300.581
300.614
300.649
300.684
300.72
300.757
300.795
300.832
300.871
300.909
300.947
300.985
301.022
301.059
301.095
300
300
300
300
300
300
300
300
300
300
300
300
300
300
300.001
300.001
300.001
300.001
300.002
300.002
300.003
300.003
300.004
300.005
300.006
300.008
300.009
300.011
300.013
300.015
300.018
300.021
300.024
300.028
300.032
300.037
300.042
300.047
300.054
300.06
300.068
300.076
300.085
300.094
300.104
300.115
300.127
300.14
300.153
300.168
300.183
300.199
300.216
300.234
300.253
300.274
300.295
300.317
300.34
300.364
300.389
300.415
300.442
300.47
300.499
300.529
300.56
300.591
300.624
300.657
300.69
300.724
300.759
300.793
300.828
300.863
300.897
300.932
300.966
300.999
301.032
300
300
300
300
300
300
300
300
300
300
300
300
300
300
300.001
300.001
300.001
300.001
300.002
300.002
300.003
300.003
300.004
300.005
300.006
300.008
300.009
300.011
300.013
300.015
300.018
300.02
300.024
300.027
300.031
300.036
300.041
300.046
300.052
300.059
300.066
300.074
300.083
300.092
300.102
300.113
300.124
300.136
300.149
300.163
300.178
300.194
300.21
300.228
300.246
300.266
300.286
300.307
300.329
300.352
300.376
300.401
300.426
300.453
300.48
300.508
300.537
300.566
300.596
300.626
300.657
300.689
300.72
300.752
300.783
300.815
300.846
300.877
300.908
300.938
300.967
300
300
300
300
300
300
300
300
300
300
300
300
300
300
300.001
300.001
300.001
300.001
300.002
300.002
300.003
300.003
300.004
300.005
300.006
300.007
300.009
300.011
300.012
300.015
300.017
300.02
300.023
300.027
300.031
300.035
300.04
300.045
300.051
300.058
300.065
300.072
300.081
300.09
300.099
300.11
300.121
300.133
300.145
300.159
300.173
300.188
300.204
300.22
300.238
300.256
300.276
300.296
300.317
300.338
300.361
300.384
300.408
300.433
300.459
300.485
300.511
300.538
300.566
300.594
300.622
300.651
300.68
300.708
300.737
300.765
300.794
300.822
300.849
300.876
300.903
300
300
300
300
300
300
300
300
300
300
300
300
300
300
300.001
300.001
300.001
300.001
300.002
300.002
300.003
300.003
300.004
300.005
300.006
300.007
300.009
300.01
300.012
300.014
300.017
300.019
300.023
300.026
300.03
300.034
300.039
300.044
300.05
300.056
300.063
300.07
300.078
300.087
300.096
300.106
300.117
300.128
300.14
300.153
300.167
300.181
300.196
300.212
300.229
300.246
300.264
300.283
300.303
300.323
300.344
300.366
300.389
300.412
300.435
300.459
300.484
300.509
300.534
300.56
300.585
300.611
300.637
300.663
300.689
300.715
300.74
300.765
300.79
300.814
300.838
300
300
300
300
300
300
300
300
300
300
300
300
300
300
300.001
300.001
300.001
300.001
300.002
300.002
300.003
300.003
300.004
300.005
300.006
300.007
300.008
300.01
300.012
300.014
300.016
300.019
300.022
300.025
300.029
300.033
300.038
300.043
300.048
300.054
300.061
300.068
300.075
300.084
300.092
300.102
300.112
300.123
300.135
300.147
300.16
300.173
300.187
300.202
300.218
300.235
300.252
300.269
300.288
300.307
300.326
300.347
300.367
300.388
300.41
300.432
300.455
300.477
300.5
300.523
300.547
300.57
300.593
300.617
300.64
300.663
300.686
300.708
300.73
300.752
300.773
300
300
300
300
300
300
300
300
300
300
300
300
300
300
300.001
300.001
300.001
300.001
300.002
300.002
300.002
300.003
300.004
300.005
300.006
300.007
300.008
300.01
300.011
300.013
300.016
300.018
300.021
300.024
300.028
300.032
300.036
300.041
300.046
300.052
300.058
300.065
300.072
300.08
300.088
300.097
300.107
300.117
300.128
300.14
300.152
300.165
300.178
300.192
300.207
300.222
300.238
300.254
300.271
300.289
300.307
300.325
300.344
300.364
300.383
300.403
300.424
300.444
300.465
300.486
300.507
300.528
300.548
300.569
300.59
300.61
300.631
300.651
300.67
300.69
300.709
300
300
300
300
300
300
300
300
300
300
300
300
300
300
300
300.001
300.001
300.001
300.001
300.002
300.002
300.003
300.004
300.004
300.005
300.006
300.008
300.009
300.011
300.013
300.015
300.017
300.02
300.023
300.027
300.03
300.035
300.039
300.044
300.049
300.055
300.062
300.069
300.076
300.084
300.092
300.101
300.111
300.121
300.132
300.143
300.155
300.168
300.181
300.194
300.208
300.223
300.238
300.253
300.269
300.286
300.303
300.32
300.337
300.355
300.373
300.392
300.41
300.428
300.447
300.466
300.484
300.503
300.521
300.54
300.558
300.576
300.593
300.611
300.628
300.645
300
300
300
300
300
300
300
300
300
300
300
300
300
300
300
300.001
300.001
300.001
300.001
300.002
300.002
300.003
300.003
300.004
300.005
300.006
300.007
300.009
300.01
300.012
300.014
300.017
300.019
300.022
300.025
300.029
300.033
300.037
300.042
300.047
300.052
300.058
300.065
300.072
300.079
300.087
300.095
300.104
300.114
300.124
300.134
300.145
300.156
300.168
300.181
300.193
300.207
300.22
300.235
300.249
300.264
300.279
300.295
300.31
300.326
300.342
300.359
300.375
300.391
300.408
300.424
300.441
300.457
300.473
300.489
300.505
300.521
300.537
300.552
300.567
300.582
300
300
300
300
300
300
300
300
300
300
300
300
300
300
300
300.001
300.001
300.001
300.001
300.002
300.002
300.003
300.003
300.004
300.005
300.006
300.007
300.008
300.01
300.012
300.013
300.016
300.018
300.021
300.024
300.027
300.031
300.035
300.039
300.044
300.049
300.054
300.06
300.067
300.074
300.081
300.089
300.097
300.105
300.114
300.124
300.134
300.144
300.155
300.166
300.178
300.19
300.202
300.215
300.228
300.241
300.255
300.268
300.282
300.296
300.311
300.325
300.339
300.354
300.368
300.383
300.397
300.411
300.426
300.44
300.454
300.467
300.481
300.494
300.508
300.52
300
300
300
300
300
300
300
300
300
300
300
300
300
300
300
300.001
300.001
300.001
300.001
300.002
300.002
300.002
300.003
300.004
300.005
300.005
300.007
300.008
300.009
300.011
300.013
300.015
300.017
300.019
300.022
300.025
300.029
300.032
300.036
300.041
300.045
300.05
300.056
300.062
300.068
300.074
300.081
300.089
300.097
300.105
300.113
300.122
300.132
300.141
300.151
300.162
300.172
300.183
300.195
300.206
300.218
300.23
300.242
300.254
300.266
300.279
300.291
300.304
300.316
300.329
300.341
300.354
300.366
300.379
300.391
300.403
300.415
300.427
300.438
300.45
300.461
300
300
300
300
300
300
300
300
300
300
300
300
300
300
300
300
300.001
300.001
300.001
300.001
300.002
300.002
300.003
300.003
300.004
300.005
300.006
300.007
300.008
300.01
300.012
300.013
300.015
300.018
300.02
300.023
300.026
300.03
300.033
300.037
300.041
300.046
300.051
300.056
300.062
300.068
300.074
300.081
300.088
300.095
300.103
300.11
300.119
300.127
300.136
300.145
300.155
300.164
300.174
300.184
300.194
300.205
300.215
300.226
300.236
300.247
300.258
300.269
300.28
300.29
300.301
300.312
300.322
300.333
300.343
300.354
300.364
300.374
300.384
300.394
300.403
300
300
300
300
300
300
300
300
300
300
300
300
300
300
300
300
300.001
300.001
300.001
300.001
300.002
300.002
300.003
300.003
300.004
300.005
300.005
300.007
300.008
300.009
300.011
300.012
300.014
300.016
300.018
300.021
300.024
300.027
300.03
300.034
300.037
300.041
300.046
300.051
300.055
300.061
300.066
300.072
300.078
300.085
300.091
300.098
300.106
300.113
300.121
300.129
300.137
300.145
300.153
300.162
300.171
300.18
300.189
300.198
300.207
300.216
300.225
300.234
300.244
300.253
300.262
300.271
300.28
300.289
300.298
300.307
300.315
300.324
300.332
300.341
300.349
300
300
300
300
300
300
300
300
300
300
300
300
300
300
300
300
300
300.001
300.001
300.001
300.001
300.002
300.002
300.003
300.003
300.004
300.005
300.006
300.007
300.008
300.009
300.011
300.013
300.014
300.016
300.019
300.021
300.024
300.027
300.03
300.033
300.037
300.041
300.045
300.049
300.054
300.058
300.064
300.069
300.074
300.08
300.086
300.092
300.099
300.105
300.112
300.119
300.126
300.133
300.141
300.148
300.155
300.163
300.171
300.178
300.186
300.194
300.202
300.209
300.217
300.225
300.232
300.24
300.247
300.255
300.262
300.269
300.276
300.283
300.29
300.297
300
300
300
300
300
300
300
300
300
300
300
300
300
300
300
300
300
300.001
300.001
300.001
300.001
300.002
300.002
300.002
300.003
300.004
300.004
300.005
300.006
300.007
300.008
300.01
300.011
300.013
300.014
300.016
300.019
300.021
300.023
300.026
300.029
300.032
300.035
300.039
300.043
300.047
300.051
300.055
300.06
300.064
300.069
300.074
300.079
300.085
300.09
300.096
300.102
300.108
300.114
300.12
300.126
300.132
300.139
300.145
300.151
300.158
300.164
300.17
300.177
300.183
300.189
300.196
300.202
300.208
300.214
300.22
300.226
300.232
300.238
300.244
300.249
300
300
300
300
300
300
300
300
300
300
300
300
300
300
300
300
300
300
300.001
300.001
300.001
300.001
300.002
300.002
300.003
300.003
300.004
300.004
300.005
300.006
300.007
300.008
300.01
300.011
300.012
300.014
300.016
300.018
300.02
300.022
300.025
300.027
300.03
300.033
300.036
300.04
300.043
300.047
300.05
300.054
300.058
300.063
300.067
300.071
300.076
300.081
300.085
300.09
300.095
300.1
300.105
300.11
300.116
300.121
300.126
300.131
300.136
300.141
300.147
300.152
300.157
300.162
300.167
300.172
300.177
300.182
300.187
300.192
300.196
300.201
300.205
300
300
300
300
300
300
300
300
300
300
300
300
300
300
300
300
300
300
300
300.001
300.001
300.001
300.001
300.002
300.002
300.003
300.003
300.004
300.004
300.005
300.006
300.007
300.008
300.009
300.011
300.012
300.013
300.015
300.017
300.019
300.021
300.023
300.025
300.028
300.03
300.033
300.036
300.039
300.042
300.045
300.048
300.052
300.055
300.059
300.063
300.066
300.07
300.074
300.078
300.082
300.086
300.09
300.094
300.098
300.103
300.107
300.111
300.115
300.119
300.123
300.127
300.131
300.135
300.139
300.143
300.147
300.151
300.155
300.159
300.162
300.166
300
300
300
300
300
300
300
300
300
300
300
300
300
300
300
300
300
300
300
300.001
300.001
300.001
300.001
300.001
300.002
300.002
300.003
300.003
300.004
300.004
300.005
300.006
300.007
300.008
300.009
300.01
300.011
300.012
300.014
300.015
300.017
300.019
300.021
300.023
300.025
300.027
300.029
300.031
300.034
300.036
300.039
300.042
300.045
300.047
300.05
300.053
300.056
300.059
300.063
300.066
300.069
300.072
300.075
300.078
300.082
300.085
300.088
300.091
300.095
300.098
300.101
300.104
300.107
300.11
300.113
300.116
300.119
300.122
300.125
300.128
300.131
300
300
300
300
300
300
300
300
300
300
300
300
300
300
300
300
300
300
300
300
300
300.001
300.001
300.001
300.001
300.002
300.002
300.002
300.003
300.003
300.004
300.005
300.005
300.006
300.007
300.008
300.009
300.01
300.011
300.012
300.013
300.015
300.016
300.018
300.019
300.021
300.023
300.025
300.027
300.029
300.031
300.033
300.035
300.037
300.039
300.042
300.044
300.046
300.049
300.051
300.054
300.056
300.058
300.061
300.063
300.066
300.068
300.071
300.073
300.076
300.078
300.08
300.083
300.085
300.088
300.09
300.092
300.094
300.097
300.099
300.101
300
300
300
300
300
300
300
300
300
300
300
300
300
300
300
300
300
300
300
300
300
300
300.001
300.001
300.001
300.001
300.002
300.002
300.002
300.003
300.003
300.004
300.004
300.005
300.005
300.006
300.007
300.008
300.008
300.009
300.01
300.011
300.013
300.014
300.015
300.016
300.018
300.019
300.02
300.022
300.023
300.025
300.027
300.028
300.03
300.032
300.033
300.035
300.037
300.039
300.04
300.042
300.044
300.046
300.048
300.05
300.051
300.053
300.055
300.057
300.059
300.06
300.062
300.064
300.066
300.067
300.069
300.071
300.072
300.074
300.075
300
300
300
300
300
300
300
300
300
300
300
300
300
300
300
300
300
300
300
300
300
300
300
300
300.001
300.001
300.001
300.001
300.002
300.002
300.002
300.003
300.003
300.003
300.004
300.004
300.005
300.006
300.006
300.007
300.008
300.008
300.009
300.01
300.011
300.012
300.013
300.014
300.015
300.016
300.017
300.018
300.02
300.021
300.022
300.023
300.024
300.026
300.027
300.028
300.03
300.031
300.032
300.033
300.035
300.036
300.037
300.039
300.04
300.041
300.043
300.044
300.045
300.046
300.048
300.049
300.05
300.051
300.052
300.054
300.055
300
300
300
300
300
300
300
300
300
300
300
300
300
300
300
300
300
300
300
300
300
300
300
300
300
300
300.001
300.001
300.001
300.001
300.001
300.002
300.002
300.002
300.003
300.003
300.003
300.004
300.004
300.005
300.005
300.006
300.007
300.007
300.008
300.008
300.009
300.01
300.011
300.011
300.012
300.013
300.014
300.015
300.015
300.016
300.017
300.018
300.019
300.02
300.021
300.022
300.023
300.023
300.024
300.025
300.026
300.027
300.028
300.029
300.03
300.031
300.032
300.032
300.033
300.034
300.035
300.036
300.037
300.037
300.038
300
300
300
300
300
300
300
300
300
300
300
300
300
300
300
300
300
300
300
300
300
300
300
300
300
300
300
300
300.001
300.001
300.001
300.001
300.001
300.001
300.002
300.002
300.002
300.003
300.003
300.003
300.004
300.004
300.004
300.005
300.005
300.006
300.006
300.007
300.007
300.008
300.008
300.009
300.009
300.01
300.01
300.011
300.012
300.012
300.013
300.013
300.014
300.015
300.015
300.016
300.016
300.017
300.018
300.018
300.019
300.019
300.02
300.021
300.021
300.022
300.022
300.023
300.023
300.024
300.024
300.025
300.026
300
300
300
300
300
300
300
300
300
300
300
300
300
300
300
300
300
300
300
300
300
300
300
300
300
300
300
300
300
300
300
300.001
300.001
300.001
300.001
300.001
300.001
300.001
300.002
300.002
300.002
300.002
300.003
300.003
300.003
300.004
300.004
300.004
300.004
300.005
300.005
300.005
300.006
300.006
300.007
300.007
300.007
300.008
300.008
300.008
300.009
300.009
300.01
300.01
300.01
300.011
300.011
300.012
300.012
300.012
300.013
300.013
300.013
300.014
300.014
300.015
300.015
300.015
300.016
300.016
300.016
300
300
300
300
300
300
300
300
300
300
300
300
300
300
300
300
300
300
300
300
300
300
300
300
300
300
300
300
300
300
300
300
300
300
300
300
300.001
300.001
300.001
300.001
300.001
300.001
300.001
300.002
300.002
300.002
300.002
300.002
300.003
300.003
300.003
300.003
300.003
300.004
300.004
300.004
300.004
300.004
300.005
300.005
300.005
300.005
300.006
300.006
300.006
300.006
300.007
300.007
300.007
300.007
300.008
300.008
300.008
300.008
300.008
300.009
300.009
300.009
300.009
300.009
300.01
300
300
300
300
300
300
300
300
300
300
300
300
300
300
300
300
300
300
300
300
300
300
300
300
300
300
300
300
300
300
300
300
300
300
300
300
300
300
300
300
300
300
300.001
300.001
300.001
300.001
300.001
300.001
300.001
300.001
300.001
300.002
300.002
300.002
300.002
300.002
300.002
300.002
300.002
300.003
300.003
300.003
300.003
300.003
300.003
300.003
300.004
300.004
300.004
300.004
300.004
300.004
300.004
300.004
300.005
300.005
300.005
300.005
300.005
300.005
300.005
300
300
300
300
300
300
300
300
300
300
300
300
300
300
300
300
300
299.999
299.999
299.999
299.999
299.999
299.999
299.999
299.999
299.999
299.999
300
300
300
300
300
300
300
300
300
300
300
300
300
300
300
300
300
300
300
300
300
300
300
300
300.001
300.001
300.001
300.001
300.001
300.001
300.001
300.001
300.001
300.001
300.001
300.001
300.001
300.001
300.002
300.002
300.002
300.002
300.002
300.002
300.002
300.002
300.002
300.002
300.002
300.002
300.002
300.002
300.003
300.003
300
300
300
300
300
300
300
300
300
300
300
300
300
300
300
299.999
299.999
299.999
299.999
299.999
299.999
299.999
299.999
299.999
299.999
299.999
299.999
299.999
299.999
299.999
299.999
299.999
299.999
299.999
299.999
299.999
300
300
300
300
300
300
300
300
300
300
300
300
300
300
300
300
300
300
300
300
300
300
300
300
300
300
300
300
300
300
300
300.001
300.001
300.001
300.001
300.001
300.001
300.001
300.001
300.001
300.001
300.001
300.001
300.001
300.001
300
300
300
300
300
300
300
300
300
300
300
300
300
300
299.999
299.999
299.999
299.999
299.999
299.999
299.999
299.999
299.999
299.999
299.999
299.999
299.999
299.999
299.999
299.999
299.999
299.999
299.999
299.999
299.999
299.999
299.999
299.999
299.999
299.999
299.999
299.999
299.999
299.999
299.999
299.999
299.999
300
300
300
300
300
300
300
300
300
300
300
300
300
300
300
300
300
300
300
300
300
300
300
300
300
300
300
300
300
300
300
300
300
300
300
300
300
300
300
300
300
300
300
300
300
300
300
299.999
299.999
299.999
299.999
299.999
299.999
299.999
299.999
299.999
299.999
299.999
299.999
299.999
299.999
299.999
299.999
299.999
299.999
299.999
299.999
299.999
299.999
299.999
299.999
299.999
299.999
299.999
299.999
299.999
299.999
299.999
299.999
299.999
299.999
299.999
299.999
299.999
299.999
299.999
299.999
299.999
299.999
299.999
299.999
299.999
299.999
299.999
299.999
299.999
299.999
299.999
299.999
299.999
299.999
300
300
300
300
300
300
300
300
300
300
300
300
300
300
300
300
300
300
300
300
300
300
300
300
300
300
300
299.999
299.999
299.999
299.999
299.999
299.999
299.999
299.999
299.999
299.999
299.999
299.999
299.999
299.999
299.999
299.999
299.999
299.999
299.999
299.999
299.999
299.999
299.999
299.999
299.999
299.999
299.999
299.999
299.999
299.999
299.999
299.999
299.999
299.999
299.999
299.999
299.999
299.999
299.999
299.999
299.999
299.999
299.999
299.999
299.999
299.999
299.999
299.999
299.999
299.999
299.999
299.999
299.999
299.999
299.999
299.999
299.999
299.999
299.999
299.999
299.999
299.999
299.999
299.999
299.999
299.999
299.999
299.999
301.851
301.967
302.034
302.096
302.149
302.191
302.218
302.249
302.279
302.307
302.33
302.355
302.38
302.404
302.427
302.449
302.47
302.487
302.506
302.525
302.542
302.56
302.578
302.594
302.611
302.627
302.642
302.657
302.671
302.685
302.698
302.711
302.723
302.736
302.748
302.759
302.77
302.78
302.791
302.801
302.81
302.819
302.829
302.838
302.847
302.856
302.864
302.872
302.88
302.887
302.894
302.9
302.907
302.914
302.92
302.926
302.932
302.938
302.943
302.948
302.953
302.957
302.961
302.966
302.97
302.974
302.978
302.981
302.984
302.988
302.991
302.993
302.996
302.999
303.001
303.003
303.005
303.007
303.009
303.01
303.012
303.014
303.015
303.016
303.017
303.018
303.019
303.02
303.02
303.021
303.021
303.022
303.022
303.023
303.023
303.023
303.023
303.023
303.023
303.023
303.023
303.023
303.023
303.023
303.023
303.022
303.022
303.022
303.022
303.021
303.021
303.021
303.021
303.021
303.02
303.02
303.02
303.02
303.02
303.02
303.02
303.02
303.02
303.02
303.019
303.019
303.019
303.018
303.018
303.017
303.016
303.015
303.014
303.012
303.01
303.008
303.005
303.002
302.998
302.994
302.989
302.984
302.978
302.972
302.964
302.955
302.945
302.934
302.92
302.904
302.883
302.86
302.836
302.807
302.773
302.731
302.683
302.594
302.506
302.387
302.217
301.754
301.854
301.931
301.995
302.05
302.095
302.131
302.165
302.197
302.227
302.254
302.28
302.306
302.33
302.354
302.376
302.398
302.417
302.437
302.456
302.474
302.492
302.51
302.527
302.543
302.559
302.575
302.59
302.604
302.618
302.632
302.645
302.658
302.67
302.682
302.693
302.704
302.715
302.725
302.736
302.745
302.755
302.764
302.773
302.782
302.791
302.799
302.807
302.815
302.822
302.829
302.836
302.842
302.849
302.855
302.861
302.867
302.873
302.878
302.883
302.888
302.892
302.897
302.901
302.905
302.909
302.913
302.916
302.919
302.923
302.926
302.928
302.931
302.934
302.936
302.938
302.94
302.942
302.944
302.945
302.947
302.948
302.95
302.951
302.952
302.953
302.953
302.954
302.955
302.956
302.956
302.957
302.957
302.957
302.958
302.958
302.958
302.958
302.958
302.958
302.958
302.958
302.958
302.958
302.957
302.957
302.957
302.957
302.956
302.956
302.956
302.956
302.956
302.955
302.955
302.955
302.955
302.955
302.955
302.955
302.955
302.955
302.955
302.954
302.954
302.954
302.954
302.953
302.953
302.952
302.951
302.95
302.948
302.947
302.945
302.942
302.94
302.937
302.933
302.929
302.925
302.92
302.914
302.907
302.9
302.891
302.881
302.87
302.856
302.84
302.819
302.797
302.772
302.743
302.708
302.665
302.613
302.528
302.436
302.311
302.126
301.674
301.76
301.834
301.898
301.953
302.001
302.042
302.079
302.113
302.144
302.173
302.201
302.228
302.253
302.277
302.3
302.322
302.343
302.363
302.383
302.402
302.42
302.438
302.455
302.472
302.488
302.504
302.519
302.534
302.548
302.562
302.575
302.588
302.601
302.613
302.624
302.635
302.646
302.657
302.667
302.677
302.686
302.696
302.705
302.714
302.723
302.731
302.739
302.746
302.754
302.761
302.768
302.774
302.781
302.787
302.793
302.799
302.805
302.81
302.815
302.819
302.824
302.828
302.832
302.836
302.84
302.844
302.847
302.851
302.854
302.857
302.86
302.862
302.865
302.867
302.869
302.871
302.873
302.875
302.876
302.878
302.879
302.881
302.882
302.883
302.884
302.885
302.885
302.886
302.887
302.887
302.888
302.888
302.888
302.889
302.889
302.889
302.889
302.889
302.889
302.889
302.889
302.889
302.889
302.888
302.888
302.888
302.888
302.887
302.887
302.887
302.887
302.887
302.886
302.886
302.886
302.886
302.886
302.886
302.886
302.886
302.886
302.886
302.885
302.885
302.885
302.885
302.884
302.884
302.883
302.882
302.881
302.879
302.878
302.876
302.874
302.871
302.868
302.865
302.861
302.856
302.851
302.846
302.839
302.832
302.823
302.813
302.802
302.788
302.772
302.752
302.73
302.705
302.675
302.639
302.596
302.541
302.458
302.363
302.234
302.039
301.601
301.677
301.745
301.806
301.86
301.909
301.952
301.99
302.026
302.059
302.09
302.119
302.146
302.172
302.197
302.221
302.244
302.265
302.286
302.306
302.326
302.344
302.362
302.38
302.397
302.414
302.43
302.445
302.46
302.474
302.488
302.502
302.515
302.527
302.54
302.551
302.563
302.574
302.584
302.595
302.604
302.614
302.624
302.633
302.642
302.65
302.659
302.667
302.674
302.682
302.689
302.696
302.702
302.709
302.715
302.721
302.727
302.732
302.738
302.743
302.747
302.752
302.756
302.76
302.764
302.768
302.772
302.775
302.778
302.781
302.784
302.787
302.79
302.792
302.794
302.797
302.798
302.8
302.802
302.804
302.805
302.807
302.808
302.809
302.81
302.811
302.812
302.812
302.813
302.814
302.814
302.815
302.815
302.815
302.816
302.816
302.816
302.816
302.816
302.816
302.816
302.816
302.816
302.816
302.816
302.815
302.815
302.815
302.815
302.814
302.814
302.814
302.814
302.814
302.814
302.813
302.813
302.813
302.813
302.813
302.813
302.813
302.813
302.813
302.812
302.812
302.812
302.811
302.811
302.81
302.809
302.808
302.807
302.805
302.803
302.801
302.799
302.796
302.792
302.789
302.784
302.779
302.774
302.767
302.76
302.752
302.742
302.73
302.717
302.701
302.681
302.659
302.634
302.604
302.567
302.523
302.466
302.385
302.287
302.154
301.956
301.532
301.598
301.661
301.718
301.77
301.818
301.861
301.901
301.938
301.972
302.004
302.034
302.062
302.089
302.114
302.139
302.162
302.184
302.205
302.226
302.246
302.265
302.283
302.301
302.319
302.335
302.352
302.367
302.382
302.397
302.411
302.425
302.438
302.45
302.463
302.475
302.486
302.497
302.508
302.518
302.528
302.538
302.548
302.557
302.566
302.574
302.583
302.591
302.598
302.606
302.613
302.62
302.626
302.633
302.639
302.645
302.651
302.656
302.661
302.666
302.671
302.676
302.68
302.684
302.688
302.692
302.695
302.699
302.702
302.705
302.708
302.711
302.713
302.716
302.718
302.72
302.722
302.724
302.725
302.727
302.729
302.73
302.731
302.732
302.733
302.734
302.735
302.736
302.736
302.737
302.737
302.738
302.738
302.739
302.739
302.739
302.739
302.739
302.739
302.739
302.739
302.739
302.739
302.739
302.739
302.739
302.738
302.738
302.738
302.738
302.738
302.737
302.737
302.737
302.737
302.737
302.737