/*--------------------------------*- C++ -*----------------------------------*\
| =========                 |                                                 |
| \\      /  F ield         | OpenFOAM: The Open Source CFD Toolbox           |
|  \\    /   O peration     | Version:  2106                                  |
|   \\  /    A nd           | Website:  www.openfoam.com                      |
|    \\/     M anipulation  |                                                 |
\*---------------------------------------------------------------------------*/
FoamFile
{
    version     2.0;
    format      ascii;
    arch        "LSB;label=32;scalar=64";
    class       volVectorField;
    location    "0.4";
    object      U;
}
// * * * * * * * * * * * * * * * * * * * * * * * * * * * * * * * * * * * * * //

dimensions      [0 1 -1 0 0 0 0];

internalField   nonuniform List<vector> 
12013
(
(0.0999933 3.92315e-06 0)
(0.0999227 1.11542e-05 0)
(0.0997643 1.83707e-05 0)
(0.0995482 2.22265e-05 0)
(0.0993198 2.22704e-05 0)
(0.099111 2.01662e-05 0)
(0.0989314 1.78077e-05 0)
(0.0987747 1.62474e-05 0)
(0.0986307 1.56696e-05 0)
(0.0984906 1.58151e-05 0)
(0.0983498 1.63485e-05 0)
(0.0982063 1.70252e-05 0)
(0.0980597 1.77164e-05 0)
(0.0979105 1.8374e-05 0)
(0.0977592 1.89922e-05 0)
(0.0976062 1.95811e-05 0)
(0.0974518 2.01522e-05 0)
(0.0972963 2.07155e-05 0)
(0.0971398 2.12763e-05 0)
(0.0969825 2.18375e-05 0)
(0.0968244 2.23992e-05 0)
(0.0966657 2.29595e-05 0)
(0.0965065 2.35143e-05 0)
(0.0963469 2.406e-05 0)
(0.0961872 2.45905e-05 0)
(0.0960275 2.51011e-05 0)
(0.0958681 2.55853e-05 0)
(0.0957093 2.60388e-05 0)
(0.0955513 2.64572e-05 0)
(0.0953945 2.68369e-05 0)
(0.0952391 2.7177e-05 0)
(0.0950853 2.74758e-05 0)
(0.0949335 2.77347e-05 0)
(0.0947839 2.79564e-05 0)
(0.0946367 2.81442e-05 0)
(0.0944921 2.83038e-05 0)
(0.0943501 2.84415e-05 0)
(0.094211 2.85653e-05 0)
(0.0940746 2.86839e-05 0)
(0.093941 2.88073e-05 0)
(0.0938102 2.89465e-05 0)
(0.093682 2.91127e-05 0)
(0.0935562 2.93195e-05 0)
(0.0934327 2.95798e-05 0)
(0.0933111 2.99086e-05 0)
(0.0931911 3.03213e-05 0)
(0.0930724 3.08354e-05 0)
(0.0929545 3.14691e-05 0)
(0.092837 3.22435e-05 0)
(0.0927193 3.31824e-05 0)
(0.0926008 3.43124e-05 0)
(0.0924808 3.56642e-05 0)
(0.0923586 3.72756e-05 0)
(0.0922332 3.91895e-05 0)
(0.0921038 4.14592e-05 0)
(0.0919692 4.41479e-05 0)
(0.0918281 4.73343e-05 0)
(0.091679 5.11146e-05 0)
(0.0915202 5.56075e-05 0)
(0.0913496 6.09619e-05 0)
(0.0911647 6.73641e-05 0)
(0.0909627 7.50494e-05 0)
(0.0907399 8.43183e-05 0)
(0.0904921 9.55573e-05 0)
(0.0902139 0.000109269 0)
(0.0898988 0.000126115 0)
(0.0895385 0.000146978 0)
(0.0891225 0.000173054 0)
(0.0886373 0.000205986 0)
(0.0880653 0.00024808 0)
(0.0873832 0.000302624 0)
(0.0865597 0.000374408 0)
(0.0855515 0.000470556 0)
(0.0842981 0.000601896 0)
(0.0827132 0.000785253 0)
(0.0806717 0.00104734 0)
(0.0779874 0.00143153 0)
(0.0743661 0.00201182 0)
(0.0693504 0.00293679 0)
(0.062401 0.00462018 0)
(0.0545639 0.00892125 0)
(0.0999944 1.19049e-05 0)
(0.0999255 3.40621e-05 0)
(0.0997696 5.62026e-05 0)
(0.0995557 6.80809e-05 0)
(0.0993287 6.82859e-05 0)
(0.0991205 6.18906e-05 0)
(0.0989406 5.46914e-05 0)
(0.0987836 4.9916e-05 0)
(0.0986391 4.81393e-05 0)
(0.0984987 4.85738e-05 0)
(0.0983578 5.0196e-05 0)
(0.0982142 5.22598e-05 0)
(0.0980677 5.437e-05 0)
(0.0979187 5.63803e-05 0)
(0.0977677 5.82719e-05 0)
(0.097615 6.00743e-05 0)
(0.097461 6.18239e-05 0)
(0.0973058 6.35494e-05 0)
(0.0971497 6.52684e-05 0)
(0.0969928 6.69887e-05 0)
(0.0968351 6.87104e-05 0)
(0.0966768 7.04278e-05 0)
(0.096518 7.21302e-05 0)
(0.0963588 7.38041e-05 0)
(0.0961995 7.54323e-05 0)
(0.0960402 7.69988e-05 0)
(0.0958812 7.84861e-05 0)
(0.0957228 7.98794e-05 0)
(0.0955652 8.11659e-05 0)
(0.0954087 8.23354e-05 0)
(0.0952535 8.33827e-05 0)
(0.0951 8.43054e-05 0)
(0.0949484 8.51069e-05 0)
(0.094799 8.57948e-05 0)
(0.0946519 8.63804e-05 0)
(0.0945073 8.68799e-05 0)
(0.0943654 8.73135e-05 0)
(0.0942261 8.77049e-05 0)
(0.0940896 8.80815e-05 0)
(0.0939559 8.84734e-05 0)
(0.0938248 8.89141e-05 0)
(0.0936962 8.944e-05 0)
(0.09357 9.00899e-05 0)
(0.093446 9.09052e-05 0)
(0.0933238 9.19306e-05 0)
(0.0932032 9.32143e-05 0)
(0.0930838 9.48091e-05 0)
(0.0929652 9.67717e-05 0)
(0.0928468 9.91662e-05 0)
(0.0927282 0.000102064 0)
(0.0926088 0.000105548 0)
(0.0924879 0.000109712 0)
(0.0923646 0.000114669 0)
(0.0922383 0.000120552 0)
(0.0921079 0.000127523 0)
(0.0919723 0.000135775 0)
(0.0918303 0.000145545 0)
(0.0916804 0.000157126 0)
(0.0915208 0.000170879 0)
(0.0913497 0.000187253 0)
(0.0911646 0.000206812 0)
(0.0909627 0.000230265 0)
(0.0907407 0.000258517 0)
(0.0904943 0.000292726 0)
(0.0902187 0.000334396 0)
(0.0899075 0.000385496 0)
(0.0895533 0.000448645 0)
(0.0891463 0.000527365 0)
(0.0886744 0.000626471 0)
(0.088122 0.000752651 0)
(0.0874688 0.000915352 0)
(0.0866885 0.00112815 0)
(0.0857458 0.0014109 0)
(0.0845938 0.0017931 0)
(0.0831695 0.00231919 0)
(0.0813894 0.00305673 0)
(0.0791441 0.00410796 0)
(0.0762901 0.00562537 0)
(0.072668 0.00783132 0)
(0.0683308 0.0109809 0)
(0.0645577 0.0149285 0)
(0.0999954 1.99577e-05 0)
(0.09993 5.78548e-05 0)
(0.0997798 9.58424e-05 0)
(0.0995715 0.000116462 0)
(0.0993481 0.000117152 0)
(0.0991413 0.000106464 0)
(0.0989611 9.42736e-05 0)
(0.098803 8.61245e-05 0)
(0.0986574 8.30465e-05 0)
(0.0985162 8.37324e-05 0)
(0.0983748 8.64534e-05 0)
(0.0982312 8.99426e-05 0)
(0.098085 9.35258e-05 0)
(0.0979364 9.69492e-05 0)
(0.0977859 0.000100178 0)
(0.0976339 0.000103261 0)
(0.0974807 0.000106257 0)
(0.0973263 0.000109213 0)
(0.097171 0.000112161 0)
(0.097015 0.000115111 0)
(0.0968582 0.000118066 0)
(0.0967007 0.000121014 0)
(0.0965429 0.000123938 0)
(0.0963846 0.000126813 0)
(0.0962263 0.000129614 0)
(0.0960679 0.000132309 0)
(0.0959099 0.000134872 0)
(0.0957523 0.000137275 0)
(0.0955955 0.000139499 0)
(0.0954398 0.000141525 0)
(0.0952854 0.000143345 0)
(0.0951326 0.000144955 0)
(0.0949816 0.000146361 0)
(0.0948327 0.000147575 0)
(0.094686 0.000148618 0)
(0.0945417 0.000149517 0)
(0.0943999 0.000150307 0)
(0.0942607 0.000151028 0)
(0.0941241 0.000151727 0)
(0.0939901 0.000152455 0)
(0.0938586 0.000153271 0)
(0.0937295 0.000154236 0)
(0.0936027 0.000155416 0)
(0.0934779 0.000156883 0)
(0.0933549 0.000158713 0)
(0.0932332 0.000160989 0)
(0.0931127 0.0001638 0)
(0.0929928 0.000167244 0)
(0.092873 0.00017143 0)
(0.092753 0.000176479 0)
(0.092632 0.000182532 0)
(0.0925094 0.000189752 0)
(0.0923845 0.000198327 0)
(0.0922565 0.000208484 0)
(0.0921244 0.000220495 0)
(0.0919871 0.000234688 0)
(0.0918435 0.000251463 0)
(0.0916922 0.00027131 0)
(0.0915315 0.000294835 0)
(0.0913596 0.000322788 0)
(0.0911742 0.000356107 0)
(0.0909727 0.000395967 0)
(0.090752 0.00044386 0)
(0.0905084 0.000501686 0)
(0.0902373 0.000571891 0)
(0.0899333 0.000657659 0)
(0.0895898 0.000763175 0)
(0.0891987 0.000894007 0)
(0.0887499 0.00105766 0)
(0.088231 0.00126437 0)
(0.0876269 0.00152831 0)
(0.0869185 0.00186928 0)
(0.0860828 0.00231527 0)
(0.085092 0.0029061 0)
(0.0839144 0.00369828 0)
(0.0825175 0.00477099 0)
(0.0808764 0.00623061 0)
(0.07899 0.0082077 0)
(0.0769238 0.0108315 0)
(0.0749388 0.0141085 0)
(0.0737274 0.0174408 0)
(0.0999963 2.78285e-05 0)
(0.0999363 8.19708e-05 0)
(0.0997951 0.000136568 0)
(0.0995959 0.000166802 0)
(0.0993787 0.000168638 0)
(0.0991742 0.000153986 0)
(0.0989937 0.000136856 0)
(0.0988339 0.00012524 0)
(0.0986864 0.000120732 0)
(0.098544 0.000121567 0)
(0.0984019 0.000125329 0)
(0.0982583 0.000130227 0)
(0.0981125 0.000135297 0)
(0.0979647 0.000140168 0)
(0.0978151 0.000144781 0)
(0.0976642 0.000149198 0)
(0.0975122 0.000153499 0)
(0.0973591 0.000157749 0)
(0.0972052 0.00016199 0)
(0.0970505 0.000166238 0)
(0.0968951 0.000170494 0)
(0.0967392 0.000174743 0)
(0.0965828 0.000178959 0)
(0.0964261 0.000183109 0)
(0.0962693 0.000187154 0)
(0.0961125 0.000191053 0)
(0.095956 0.000194766 0)
(0.0957999 0.000198257 0)
(0.0956446 0.000201494 0)
(0.0954903 0.000204454 0)
(0.0953372 0.000207125 0)
(0.0951856 0.000209502 0)
(0.0950357 0.000211593 0)
(0.0948877 0.000213417 0)
(0.0947418 0.000215001 0)
(0.0945981 0.000216387 0)
(0.0944568 0.000217623 0)
(0.0943179 0.000218768 0)
(0.0941814 0.000219888 0)
(0.0940474 0.000221059 0)
(0.0939157 0.000222362 0)
(0.0937861 0.000223886 0)
(0.0936587 0.000225725 0)
(0.093533 0.000227983 0)
(0.093409 0.000230769 0)
(0.0932862 0.000234201 0)
(0.0931643 0.000238407 0)
(0.0930429 0.000243526 0)
(0.0929215 0.000249714 0)
(0.0927997 0.000257146 0)
(0.0926769 0.00026602 0)
(0.0925524 0.000276567 0)
(0.0924256 0.000289057 0)
(0.0922956 0.000303809 0)
(0.0921616 0.000321206 0)
(0.0920226 0.000341709 0)
(0.0918774 0.000365879 0)
(0.0917248 0.0003944 0)
(0.0915632 0.000428114 0)
(0.0913911 0.000468059 0)
(0.0912062 0.000515525 0)
(0.0910064 0.00057212 0)
(0.0907888 0.000639866 0)
(0.0905504 0.00072132 0)
(0.0902873 0.000819742 0)
(0.0899951 0.000939321 0)
(0.0896686 0.00108549 0)
(0.0893016 0.00126534 0)
(0.0888871 0.00148826 0)
(0.0884167 0.00176672 0)
(0.0878811 0.00211748 0)
(0.0872703 0.00256309 0)
(0.0865742 0.00313398 0)
(0.0857845 0.0038709 0)
(0.0848979 0.00482734 0)
(0.0839227 0.00607048 0)
(0.0828896 0.00767674 0)
(0.0818683 0.00971373 0)
(0.0809911 0.0121932 0)
(0.0804781 0.0149573 0)
(0.0806003 0.0174306 0)
(0.0999972 3.52819e-05 0)
(0.0999441 0.000105715 0)
(0.0998151 0.000177471 0)
(0.0996284 0.000218349 0)
(0.09942 0.000222389 0)
(0.0992192 0.0002045 0)
(0.0990384 0.000182742 0)
(0.0988765 0.000167657 0)
(0.0987267 0.000161569 0)
(0.0985825 0.000162376 0)
(0.0984396 0.00016704 0)
(0.098296 0.000173263 0)
(0.0981508 0.000179783 0)
(0.098004 0.0001861 0)
(0.0978559 0.00019212 0)
(0.0977065 0.000197908 0)
(0.0975561 0.00020356 0)
(0.0974049 0.000209157 0)
(0.0972528 0.000214746 0)
(0.0971001 0.00022035 0)
(0.0969468 0.000225968 0)
(0.096793 0.00023158 0)
(0.0966387 0.000237154 0)
(0.0964842 0.000242645 0)
(0.0963296 0.000248005 0)
(0.096175 0.000253179 0)
(0.0960207 0.000258117 0)
(0.0958668 0.000262772 0)
(0.0957136 0.000267105 0)
(0.0955613 0.000271085 0)
(0.0954101 0.000274696 0)
(0.0952603 0.000277934 0)
(0.0951121 0.000280809 0)
(0.0949656 0.000283345 0)
(0.094821 0.00028558 0)
(0.0946785 0.000287567 0)
(0.0945381 0.00028937 0)
(0.0943999 0.000291066 0)
(0.0942638 0.000292742 0)
(0.09413 0.000294496 0)
(0.0939983 0.000296435 0)
(0.0938685 0.000298675 0)
(0.0937406 0.000301342 0)
(0.0936142 0.000304568 0)
(0.0934892 0.000308498 0)
(0.0933653 0.000313286 0)
(0.0932421 0.000319099 0)
(0.0931193 0.00032612 0)
(0.0929963 0.000334552 0)
(0.0928728 0.00034462 0)
(0.0927482 0.000356583 0)
(0.0926219 0.00037074 0)
(0.0924933 0.000387439 0)
(0.0923616 0.000407091 0)
(0.092226 0.000430185 0)
(0.0920856 0.000457311 0)
(0.0919394 0.00048918 0)
(0.0917863 0.000526657 0)
(0.0916249 0.000570798 0)
(0.0914537 0.000622899 0)
(0.091271 0.000684555 0)
(0.091075 0.000757742 0)
(0.0908634 0.000844915 0)
(0.0906336 0.000949146 0)
(0.0903829 0.00107429 0)
(0.0901081 0.00122524 0)
(0.0898056 0.00140818 0)
(0.0894717 0.00163107 0)
(0.0891023 0.00190411 0)
(0.0886936 0.00224043 0)
(0.0882424 0.002657 0)
(0.0877469 0.00317564 0)
(0.0872084 0.0038241 0)
(0.0866338 0.00463688 0)
(0.0860389 0.00565509 0)
(0.085455 0.00692354 0)
(0.0849352 0.00848184 0)
(0.0845628 0.0103439 0)
(0.0844539 0.0124578 0)
(0.0847414 0.0146391 0)
(0.0855025 0.0164873 0)
(0.0999981 4.20511e-05 0)
(0.099953 0.000128336 0)
(0.0998388 0.000217546 0)
(0.0996677 0.000270227 0)
(0.0994704 0.000277934 0)
(0.0992746 0.000257973 0)
(0.099094 0.000232191 0)
(0.0989299 0.000213756 0)
(0.0987775 0.000205928 0)
(0.0986314 0.000206461 0)
(0.0984877 0.000211804 0)
(0.0983441 0.000219192 0)
(0.0981998 0.00022707 0)
(0.0980544 0.000234792 0)
(0.097908 0.000242212 0)
(0.0977606 0.000249387 0)
(0.0976124 0.000256421 0)
(0.0974635 0.000263401 0)
(0.0973139 0.000270383 0)
(0.0971638 0.000277391 0)
(0.0970131 0.000284421 0)
(0.096862 0.00029145 0)
(0.0967105 0.000298436 0)
(0.0965589 0.000305329 0)
(0.0964071 0.000312066 0)
(0.0962554 0.000318584 0)
(0.0961039 0.00032482 0)
(0.0959529 0.000330718 0)
(0.0958024 0.000336231 0)
(0.0956528 0.000341323 0)
(0.0955042 0.000345975 0)
(0.0953569 0.000350181 0)
(0.0952109 0.000353956 0)
(0.0950665 0.000357329 0)
(0.0949238 0.000360348 0)
(0.0947829 0.000363078 0)
(0.0946439 0.000365598 0)
(0.0945068 0.000368003 0)
(0.0943717 0.000370402 0)
(0.0942385 0.000372916 0)
(0.0941071 0.000375676 0)
(0.0939774 0.000378827 0)
(0.0938492 0.000382522 0)
(0.0937225 0.000386928 0)
(0.0935968 0.000392221 0)
(0.0934721 0.000398594 0)
(0.0933478 0.000406251 0)
(0.0932238 0.000415418 0)
(0.0930996 0.000426343 0)
(0.0929747 0.000439304 0)
(0.0928486 0.000454618 0)
(0.092721 0.000472647 0)
(0.092591 0.000493813 0)
(0.0924582 0.000518613 0)
(0.0923217 0.000547634 0)
(0.0921808 0.000581579 0)
(0.0920347 0.000621294 0)
(0.0918823 0.000667798 0)
(0.0917225 0.000722325 0)
(0.0915542 0.000786379 0)
(0.0913761 0.00086179 0)
(0.0911866 0.0009508 0)
(0.0909843 0.00105616 0)
(0.0907673 0.00118125 0)
(0.090534 0.00133027 0)
(0.0902824 0.00150838 0)
(0.0900109 0.00172202 0)
(0.089718 0.00197917 0)
(0.0894029 0.00228978 0)
(0.0890657 0.00266613 0)
(0.0887082 0.00312336 0)
(0.0883354 0.00367984 0)
(0.0879564 0.00435733 0)
(0.0875868 0.00518052 0)
(0.087252 0.00617529 0)
(0.0869898 0.00736434 0)
(0.0868539 0.0087585 0)
(0.0869138 0.0103411 0)
(0.0872483 0.0120439 0)
(0.0879235 0.0137177 0)
(0.0889425 0.0151155 0)
(0.099999 4.78857e-05 0)
(0.0999626 0.000149123 0)
(0.0998647 0.000255803 0)
(0.0997112 0.000321517 0)
(0.0995272 0.000334708 0)
(0.0993379 0.000314254 0)
(0.0991584 0.00028536 0)
(0.0989924 0.000263839 0)
(0.0988375 0.000254131 0)
(0.0986896 0.000254092 0)
(0.0985451 0.000259817 0)
(0.0984018 0.000268144 0)
(0.0982586 0.000277229 0)
(0.0981149 0.000286272 0)
(0.0979707 0.000295054 0)
(0.0978258 0.000303608 0)
(0.0976802 0.000312033 0)
(0.0975342 0.00032042 0)
(0.0973876 0.000328825 0)
(0.0972405 0.00033727 0)
(0.0970931 0.000345751 0)
(0.0969452 0.000354239 0)
(0.0967972 0.000362686 0)
(0.0966489 0.000371029 0)
(0.0965006 0.000379199 0)
(0.0963524 0.000387122 0)
(0.0962044 0.000394726 0)
(0.0960569 0.000401946 0)
(0.0959098 0.000408727 0)
(0.0957635 0.00041503 0)
(0.0956181 0.000420831 0)
(0.0954738 0.000426127 0)
(0.0953307 0.000430934 0)
(0.0951889 0.000435289 0)
(0.0950487 0.000439249 0)
(0.0949099 0.000442889 0)
(0.0947728 0.000446305 0)
(0.0946373 0.00044961 0)
(0.0945035 0.000452931 0)
(0.0943713 0.000456412 0)
(0.0942407 0.000460209 0)
(0.0941115 0.000464494 0)
(0.0939835 0.000469449 0)
(0.0938567 0.000475271 0)
(0.0937308 0.00048217 0)
(0.0936056 0.000490372 0)
(0.0934807 0.000500119 0)
(0.093356 0.000511678 0)
(0.0932309 0.000525341 0)
(0.0931051 0.000541433 0)
(0.0929783 0.000560323 0)
(0.0928499 0.000582433 0)
(0.0927194 0.00060825 0)
(0.0925863 0.000638344 0)
(0.09245 0.000673386 0)
(0.0923099 0.000714173 0)
(0.0921652 0.000761654 0)
(0.0920152 0.000816964 0)
(0.0918591 0.000881468 0)
(0.0916961 0.000956804 0)
(0.0915251 0.00104494 0)
(0.0913454 0.00114827 0)
(0.0911561 0.00126965 0)
(0.0909561 0.00141256 0)
(0.090745 0.00158119 0)
(0.0905221 0.00178059 0)
(0.0902875 0.00201687 0)
(0.0900419 0.00229733 0)
(0.0897869 0.00263072 0)
(0.0895259 0.00302731 0)
(0.0892645 0.00349905 0)
(0.0890114 0.00405944 0)
(0.0887798 0.00472304 0)
(0.0885888 0.0055044 0)
(0.0884647 0.00641583 0)
(0.0884423 0.00746345 0)
(0.088565 0.00864085 0)
(0.0888814 0.0099197 0)
(0.0894378 0.0112384 0)
(0.0902609 0.0124926 0)
(0.0913321 0.0135379 0)
(0.0999998 5.2607e-05 0)
(0.0999719 0.00016751 0)
(0.0998907 0.00029139 0)
(0.099756 0.000371346 0)
(0.0995866 0.000392082 0)
(0.0994054 0.000373054 0)
(0.0992281 0.000342249 0)
(0.0990612 0.000318073 0)
(0.0989044 0.0003064 0)
(0.0987551 0.000305476 0)
(0.0986101 0.000311239 0)
(0.0984674 0.000320218 0)
(0.0983257 0.000330312 0)
(0.0981841 0.000340551 0)
(0.0980423 0.000350625 0)
(0.0979003 0.000360525 0)
(0.0977579 0.000370334 0)
(0.0976151 0.000380132 0)
(0.097472 0.000389974 0)
(0.0973285 0.000399879 0)
(0.0971847 0.000409838 0)
(0.0970407 0.000419815 0)
(0.0968965 0.000429757 0)
(0.0967523 0.000439592 0)
(0.096608 0.000449243 0)
(0.0964638 0.000458628 0)
(0.0963198 0.000467665 0)
(0.0961763 0.000476284 0)
(0.0960332 0.000484423 0)
(0.0958907 0.00049204 0)
(0.095749 0.000499109 0)
(0.0956083 0.000505628 0)
(0.0954685 0.000511616 0)
(0.0953299 0.000517116 0)
(0.0951925 0.000522193 0)
(0.0950564 0.000526936 0)
(0.0949216 0.000531453 0)
(0.0947882 0.000535872 0)
(0.0946562 0.000540342 0)
(0.0945255 0.000545025 0)
(0.094396 0.000550103 0)
(0.0942677 0.00055577 0)
(0.0941404 0.000562236 0)
(0.094014 0.000569727 0)
(0.0938883 0.000578482 0)
(0.0937631 0.000588761 0)
(0.0936382 0.000600839 0)
(0.0935132 0.000615021 0)
(0.0933879 0.000631635 0)
(0.093262 0.000651051 0)
(0.0931351 0.00067368 0)
(0.0930069 0.000699994 0)
(0.0928769 0.000730532 0)
(0.0927447 0.000765921 0)
(0.0926099 0.000806892 0)
(0.092472 0.000854308 0)
(0.0923304 0.000909183 0)
(0.0921848 0.000972722 0)
(0.0920346 0.00104635 0)
(0.0918793 0.00113175 0)
(0.0917185 0.00123094 0)
(0.0915517 0.00134629 0)
(0.0913789 0.00148059 0)
(0.0911999 0.00163717 0)
(0.0910151 0.00181992 0)
(0.0908252 0.00203339 0)
(0.0906316 0.00228288 0)
(0.0904367 0.00257446 0)
(0.0902441 0.00291504 0)
(0.0900589 0.00331227 0)
(0.0898889 0.00377437 0)
(0.0897442 0.00430975 0)
(0.089639 0.00492626 0)
(0.0895914 0.00563002 0)
(0.0896242 0.00642352 0)
(0.0897648 0.00730282 0)
(0.0900434 0.00825375 0)
(0.0904904 0.00924745 0)
(0.0911293 0.0102361 0)
(0.0919677 0.0111518 0)
(0.0929847 0.0119123 0)
(0.100001 5.61465e-05 0)
(0.0999804 0.000183162 0)
(0.099915 0.000323712 0)
(0.0997989 0.000418998 0)
(0.099645 0.000449415 0)
(0.0994732 0.000433945 0)
(0.0992998 0.000402659 0)
(0.0991332 0.000376439 0)
(0.0989756 0.000362813 0)
(0.0988255 0.000360719 0)
(0.0986807 0.000366161 0)
(0.098539 0.000375479 0)
(0.098399 0.000386348 0)
(0.0982598 0.000397625 0)
(0.0981209 0.000408895 0)
(0.0979821 0.000420086 0)
(0.0978432 0.000431248 0)
(0.0977041 0.000442448 0)
(0.0975648 0.000453728 0)
(0.0974253 0.000465101 0)
(0.0972856 0.000476551 0)
(0.0971458 0.000488038 0)
(0.0970059 0.0004995 0)
(0.096866 0.000510862 0)
(0.0967261 0.000522036 0)
(0.0965864 0.000532933 0)
(0.0964469 0.000543467 0)
(0.0963077 0.000553561 0)
(0.096169 0.000563151 0)
(0.0960308 0.00057219 0)
(0.0958932 0.000580652 0)
(0.0957564 0.000588538 0)
(0.0956204 0.000595868 0)
(0.0954853 0.000602692 0)
(0.0953512 0.000609083 0)
(0.0952181 0.000615139 0)
(0.0950861 0.000620981 0)
(0.0949552 0.000626753 0)
(0.0948253 0.000632617 0)
(0.0946965 0.000638758 0)
(0.0945686 0.000645375 0)
(0.0944417 0.000652685 0)
(0.0943155 0.000660923 0)
(0.09419 0.000670339 0)
(0.0940651 0.000681199 0)
(0.0939405 0.000693789 0)
(0.0938161 0.000708416 0)
(0.0936917 0.000725413 0)
(0.0935669 0.000745141 0)
(0.0934417 0.000768 0)
(0.0933157 0.000794438 0)
(0.0931886 0.000824959 0)
(0.0930603 0.000860137 0)
(0.0929303 0.000900633 0)
(0.0927984 0.000947212 0)
(0.0926643 0.00100076 0)
(0.0925278 0.00106232 0)
(0.0923886 0.0011331 0)
(0.0922465 0.00121451 0)
(0.0921015 0.00130821 0)
(0.0919534 0.0014161 0)
(0.0918026 0.0015404 0)
(0.0916494 0.00168369 0)
(0.0914945 0.00184889 0)
(0.0913391 0.00203935 0)
(0.0911848 0.00225881 0)
(0.0910341 0.00251147 0)
(0.0908904 0.00280184 0)
(0.0907583 0.00313476 0)
(0.090644 0.0035151 0)
(0.0905554 0.00394755 0)
(0.0905027 0.00443608 0)
(0.0904984 0.00498329 0)
(0.0905576 0.00558942 0)
(0.0906979 0.00625104 0)
(0.0909381 0.00695945 0)
(0.0912975 0.00769886 0)
(0.0917925 0.00844471 0)
(0.0924336 0.00916279 0)
(0.0932195 0.00981045 0)
(0.094133 0.0103412 0)
(0.100001 5.85552e-05 0)
(0.0999874 0.000196019 0)
(0.0999361 0.0003525 0)
(0.0998374 0.000463984 0)
(0.0996989 0.000506118 0)
(0.0995377 0.000496389 0)
(0.0993698 0.000466201 0)
(0.0992053 0.000438711 0)
(0.0990482 0.000423275 0)
(0.0988984 0.000419805 0)
(0.0987544 0.000424601 0)
(0.0986142 0.000433944 0)
(0.0984763 0.000445339 0)
(0.0983399 0.000457478 0)
(0.0982042 0.000469825 0)
(0.0980689 0.000482231 0)
(0.0979337 0.000494703 0)
(0.0977986 0.000507278 0)
(0.0976635 0.000519984 0)
(0.0975282 0.000532823 0)
(0.097393 0.00054577 0)
(0.0972577 0.00055878 0)
(0.0971224 0.000571782 0)
(0.0969871 0.000584696 0)
(0.0968519 0.000597429 0)
(0.0967169 0.000609888 0)
(0.0965821 0.000621981 0)
(0.0964476 0.000633628 0)
(0.0963134 0.000644762 0)
(0.0961798 0.000655336 0)
(0.0960466 0.000665325 0)
(0.095914 0.000674728 0)
(0.095782 0.000683573 0)
(0.0956508 0.000691912 0)
(0.0955203 0.000699825 0)
(0.0953905 0.000707419 0)
(0.0952616 0.000714825 0)
(0.0951335 0.000722199 0)
(0.0950062 0.000729717 0)
(0.0948796 0.000737577 0)
(0.0947538 0.000745998 0)
(0.0946286 0.000755215 0)
(0.0945041 0.000765479 0)
(0.0943801 0.000777064 0)
(0.0942565 0.000790255 0)
(0.0941331 0.000805361 0)
(0.0940099 0.00082271 0)
(0.0938868 0.000842655 0)
(0.0937635 0.00086558 0)
(0.0936398 0.000891906 0)
(0.0935158 0.000922099 0)
(0.093391 0.000956678 0)
(0.0932656 0.000996231 0)
(0.0931392 0.00104143 0)
(0.0930117 0.00109302 0)
(0.0928832 0.0011519 0)
(0.0927535 0.00121907 0)
(0.0926227 0.00129567 0)
(0.0924909 0.00138305 0)
(0.0923584 0.0014827 0)
(0.0922256 0.00159634 0)
(0.092093 0.00172592 0)
(0.0919618 0.0018736 0)
(0.091833 0.00204177 0)
(0.0917085 0.00223305 0)
(0.0915905 0.00245024 0)
(0.0914822 0.00269624 0)
(0.0913873 0.00297399 0)
(0.0913108 0.00328629 0)
(0.0912587 0.00363557 0)
(0.0912384 0.00402359 0)
(0.0912587 0.00445102 0)
(0.0913296 0.0049169 0)
(0.0914624 0.00541804 0)
(0.0916692 0.00594825 0)
(0.0919619 0.00649758 0)
(0.0923513 0.00705173 0)
(0.0928452 0.00759169 0)
(0.0934465 0.00809407 0)
(0.094151 0.00853259 0)
(0.0949453 0.00888082 0)
(0.100001 5.99854e-05 0)
(0.0999927 0.00020627 0)
(0.0999532 0.000377803 0)
(0.0998699 0.000506075 0)
(0.0997463 0.000561705 0)
(0.0995963 0.000559791 0)
(0.0994354 0.00053233 0)
(0.0992748 0.000504479 0)
(0.0991197 0.000487524 0)
(0.0989715 0.000482588 0)
(0.098829 0.000486485 0)
(0.0986909 0.000495576 0)
(0.0985557 0.000507258 0)
(0.0984223 0.000520076 0)
(0.09829 0.00053337 0)
(0.0981585 0.000546905 0)
(0.0980273 0.000560628 0)
(0.0978964 0.000574542 0)
(0.0977656 0.000588653 0)
(0.0976348 0.000602948 0)
(0.0975042 0.000617392 0)
(0.0973736 0.000631931 0)
(0.097243 0.00064649 0)
(0.0971125 0.000660981 0)
(0.0969822 0.00067531 0)
(0.0968521 0.000689378 0)
(0.0967221 0.000703093 0)
(0.0965924 0.000716372 0)
(0.096463 0.000729149 0)
(0.096334 0.000741375 0)
(0.0962053 0.000753027 0)
(0.0960771 0.000764107 0)
(0.0959494 0.000774644 0)
(0.0958221 0.000784695 0)
(0.0956954 0.000794345 0)
(0.0955693 0.000803707 0)
(0.0954437 0.000812919 0)
(0.0953186 0.000822146 0)
(0.0951942 0.000831575 0)
(0.0950703 0.000841414 0)
(0.0949469 0.000851894 0)
(0.0948241 0.000863264 0)
(0.0947016 0.00087579 0)
(0.0945796 0.000889756 0)
(0.094458 0.000905465 0)
(0.0943366 0.000923237 0)
(0.0942154 0.000943413 0)
(0.0940943 0.000966358 0)
(0.0939733 0.000992463 0)
(0.0938523 0.00102215 0)
(0.0937313 0.0010559 0)
(0.0936101 0.00109421 0)
(0.0934889 0.00113766 0)
(0.0933675 0.0011869 0)
(0.093246 0.00124265 0)
(0.0931247 0.00130572 0)
(0.0930036 0.00137705 0)
(0.092883 0.00145767 0)
(0.0927634 0.00154874 0)
(0.0926453 0.00165155 0)
(0.0925294 0.00176754 0)
(0.0924168 0.00189827 0)
(0.0923087 0.00204539 0)
(0.0922068 0.00221068 0)
(0.0921132 0.00239594 0)
(0.0920304 0.00260297 0)
(0.0919618 0.00283347 0)
(0.091911 0.0030889 0)
(0.0918827 0.00337036 0)
(0.0918823 0.00367836 0)
(0.0919159 0.00401254 0)
(0.0919904 0.00437144 0)
(0.0921132 0.00475213 0)
(0.0922919 0.00514986 0)
(0.092534 0.00555777 0)
(0.0928465 0.00596661 0)
(0.0932343 0.00636473 0)
(0.0937004 0.00673823 0)
(0.094244 0.00707158 0)
(0.0948599 0.00734868 0)
(0.0955382 0.00755444 0)
(0.100001 6.065e-05 0)
(0.0999964 0.000214291 0)
(0.0999661 0.000399934 0)
(0.099896 0.000545286 0)
(0.0997861 0.000615832 0)
(0.0996476 0.000623573 0)
(0.099495 0.000600415 0)
(0.0993398 0.000573202 0)
(0.0991883 0.000555164 0)
(0.0990427 0.000548811 0)
(0.0989028 0.000551658 0)
(0.0987674 0.000560281 0)
(0.0986352 0.000572041 0)
(0.0985052 0.000585367 0)
(0.0983767 0.000599478 0)
(0.0982491 0.000614048 0)
(0.0981221 0.000628957 0)
(0.0979955 0.000644168 0)
(0.0978692 0.000659657 0)
(0.097743 0.000675394 0)
(0.0976171 0.000691332 0)
(0.0974912 0.000707406 0)
(0.0973655 0.000723537 0)
(0.0972399 0.000739632 0)
(0.0971145 0.000755594 0)
(0.0969892 0.000771323 0)
(0.0968642 0.000786727 0)
(0.0967393 0.000801722 0)
(0.0966147 0.000816242 0)
(0.0964904 0.000830242 0)
(0.0963663 0.000843699 0)
(0.0962425 0.000856616 0)
(0.0961191 0.000869024 0)
(0.0959959 0.000880984 0)
(0.0958732 0.000892584 0)
(0.0957507 0.000903939 0)
(0.0956287 0.000915192 0)
(0.095507 0.000926513 0)
(0.0953858 0.000938094 0)
(0.0952649 0.000950151 0)
(0.0951444 0.00096292 0)
(0.0950242 0.000976657 0)
(0.0949045 0.000991636 0)
(0.0947851 0.00100815 0)
(0.094666 0.0010265 0)
(0.0945473 0.00104701 0)
(0.094429 0.00107004 0)
(0.0943109 0.00109592 0)
(0.0941932 0.00112507 0)
(0.0940759 0.00115787 0)
(0.093959 0.0011948 0)
(0.0938427 0.00123632 0)
(0.0937269 0.00128297 0)
(0.0936119 0.00133534 0)
(0.093498 0.00139409 0)
(0.0933853 0.00145992 0)
(0.0932743 0.00153363 0)
(0.0931655 0.00161609 0)
(0.0930595 0.00170825 0)
(0.0929571 0.00181112 0)
(0.0928593 0.00192577 0)
(0.0927673 0.00205333 0)
(0.0926826 0.00219493 0)
(0.0926071 0.00235168 0)
(0.0925429 0.0025246 0)
(0.0924926 0.00271457 0)
(0.0924593 0.00292224 0)
(0.0924463 0.00314789 0)
(0.0924577 0.00339133 0)
(0.0924977 0.00365172 0)
(0.0925711 0.00392744 0)
(0.0926829 0.00421587 0)
(0.0928379 0.00451327 0)
(0.093041 0.00481461 0)
(0.0932964 0.00511352 0)
(0.0936074 0.00540227 0)
(0.0939759 0.00567197 0)
(0.0944018 0.00591285 0)
(0.094883 0.00611477 0)
(0.0954146 0.00626793 0)
(0.0959892 0.00636367 0)
(0.100001 6.07769e-05 0)
(0.0999988 0.00022055 0)
(0.0999753 0.000419368 0)
(0.099916 0.000581821 0)
(0.0998183 0.000668304 0)
(0.0996911 0.000687225 0)
(0.0995477 0.000669818 0)
(0.0993992 0.000644274 0)
(0.0992526 0.00062571 0)
(0.0991109 0.000618127 0)
(0.0989744 0.00061989 0)
(0.0988424 0.000627908 0)
(0.0987137 0.000639585 0)
(0.0985874 0.000653272 0)
(0.0984628 0.000668082 0)
(0.0983393 0.000683594 0)
(0.0982166 0.000699625 0)
(0.0980944 0.000716088 0)
(0.0979727 0.000732928 0)
(0.0978512 0.000750093 0)
(0.09773 0.000767522 0)
(0.097609 0.000785141 0)
(0.0974881 0.000802863 0)
(0.0973674 0.000820593 0)
(0.0972469 0.000838231 0)
(0.0971265 0.000855678 0)
(0.0970063 0.000872841 0)
(0.0968863 0.00088964 0)
(0.0967664 0.000906011 0)
(0.0966467 0.000921907 0)
(0.0965272 0.00093731 0)
(0.0964079 0.000952223 0)
(0.0962887 0.000966678 0)
(0.0961698 0.000980736 0)
(0.096051 0.000994485 0)
(0.0959325 0.00100804 0)
(0.0958142 0.00102155 0)
(0.0956961 0.00103518 0)
(0.0955783 0.00104913 0)
(0.0954608 0.0010636 0)
(0.0953436 0.00107884 0)
(0.0952267 0.00109511 0)
(0.0951102 0.00111268 0)
(0.094994 0.00113183 0)
(0.0948783 0.00115286 0)
(0.0947631 0.0011761 0)
(0.0946484 0.00120188 0)
(0.0945343 0.00123053 0)
(0.0944209 0.00126242 0)
(0.0943083 0.00129793 0)
(0.0941968 0.00133747 0)
(0.0940864 0.00138147 0)
(0.0939774 0.0014304 0)
(0.0938701 0.00148475 0)
(0.0937649 0.00154508 0)
(0.0936623 0.00161197 0)
(0.0935626 0.00168603 0)
(0.0934667 0.00176793 0)
(0.0933753 0.00185836 0)
(0.0932893 0.00195801 0)
(0.0932099 0.0020676 0)
(0.0931384 0.00218779 0)
(0.0930763 0.0023192 0)
(0.0930255 0.00246232 0)
(0.0929881 0.00261749 0)
(0.0929663 0.00278485 0)
(0.0929629 0.00296419 0)
(0.0929807 0.00315496 0)
(0.0930228 0.00335612 0)
(0.0930924 0.00356604 0)
(0.093193 0.00378248 0)
(0.0933278 0.0040024 0)
(0.0934998 0.00422202 0)
(0.0937117 0.00443671 0)
(0.0939655 0.00464111 0)
(0.0942624 0.00482918 0)
(0.0946024 0.00499442 0)
(0.0949843 0.00513015 0)
(0.0954055 0.00522985 0)
(0.0958618 0.0052876 0)
(0.0963476 0.0052984 0)
(0.100001 6.05749e-05 0)
(0.1 0.000225529 0)
(0.0999814 0.00043665 0)
(0.0999307 0.000616007 0)
(0.0998437 0.000719067 0)
(0.0997274 0.000750348 0)
(0.0995935 0.000739951 0)
(0.0994527 0.000717086 0)
(0.0993122 0.000698637 0)
(0.0991753 0.000690133 0)
(0.099043 0.00069089 0)
(0.0989149 0.000698255 0)
(0.0987902 0.000709749 0)
(0.0986679 0.000723684 0)
(0.0985474 0.000739092 0)
(0.0984282 0.000755467 0)
(0.09831 0.000772559 0)
(0.0981924 0.000790233 0)
(0.0980752 0.000808399 0)
(0.0979585 0.000826982 0)
(0.097842 0.000845905 0)
(0.0977258 0.000865081 0)
(0.0976098 0.00088442 0)
(0.0974939 0.000903821 0)
(0.0973782 0.000923185 0)
(0.0972627 0.000942413 0)
(0.0971473 0.000961415 0)
(0.097032 0.000980111 0)
(0.0969168 0.000998439 0)
(0.0968017 0.00101636 0)
(0.0966867 0.00103384 0)
(0.0965718 0.0010509 0)
(0.096457 0.00106757 0)
(0.0963422 0.00108389 0)
(0.0962276 0.00109997 0)
(0.0961131 0.00111591 0)
(0.0959987 0.00113186 0)
(0.0958845 0.00114797 0)
(0.0957705 0.00116444 0)
(0.0956568 0.00118149 0)
(0.0955433 0.00119933 0)
(0.0954302 0.00121822 0)
(0.0953174 0.00123842 0)
(0.0952052 0.00126022 0)
(0.0950935 0.00128388 0)
(0.0949825 0.00130971 0)
(0.0948724 0.00133801 0)
(0.0947631 0.0013691 0)
(0.094655 0.00140329 0)
(0.0945483 0.00144092 0)
(0.0944431 0.00148233 0)
(0.0943398 0.00152788 0)
(0.0942388 0.00157796 0)
(0.0941403 0.00163294 0)
(0.094045 0.00169324 0)
(0.0939533 0.00175928 0)
(0.0938659 0.00183149 0)
(0.0937835 0.0019103 0)
(0.0937071 0.00199612 0)
(0.0936376 0.00208936 0)
(0.0935761 0.00219034 0)
(0.0935241 0.00229931 0)
(0.093483 0.00241644 0)
(0.0934544 0.00254169 0)
(0.0934402 0.00267489 0)
(0.0934424 0.00281556 0)
(0.0934631 0.00296297 0)
(0.0935045 0.00311602 0)
(0.0935689 0.00327319 0)
(0.0936586 0.00343253 0)
(0.0937758 0.0035916 0)
(0.0939224 0.00374744 0)
(0.0941001 0.00389663 0)
(0.09431 0.00403527 0)
(0.094553 0.00415908 0)
(0.0948289 0.00426357 0)
(0.0951369 0.00434413 0)
(0.0954754 0.00439629 0)
(0.095842 0.00441592 0)
(0.0962331 0.00439947 0)
(0.0966447 0.00434411 0)
(0.100001 6.02135e-05 0)
(0.100001 0.000229663 0)
(0.0999852 0.00045232 0)
(0.0999411 0.00064823 0)
(0.0998634 0.000768175 0)
(0.0997573 0.00081266 0)
(0.0996329 0.000810317 0)
(0.0995004 0.00079107 0)
(0.0993668 0.000773414 0)
(0.0992356 0.00076439 0)