/*--------------------------------*- C++ -*----------------------------------*\
| =========                 |                                                 |
| \\      /  F ield         | OpenFOAM: The Open Source CFD Toolbox           |
|  \\    /   O peration     | Version:  2106                                  |
|   \\  /    A nd           | Website:  www.openfoam.com                      |
|    \\/     M anipulation  |                                                 |
\*---------------------------------------------------------------------------*/
FoamFile
{
    version     2.0;
    format      ascii;
    arch        "LSB;label=32;scalar=64";
    class       volVectorField;
    location    "0.4";
    object      U;
}
// * * * * * * * * * * * * * * * * * * * * * * * * * * * * * * * * * * * * * //

dimensions      [0 1 -1 0 0 0 0];

internalField   nonuniform List<vector> 
12013
(
(0.0999917 4.31787e-06 0)
(0.0999157 1.18114e-05 0)
(0.0997493 1.92078e-05 0)
(0.099524 2.31916e-05 0)
(0.0992854 2.33335e-05 0)
(0.0990659 2.13048e-05 0)
(0.098875 1.90048e-05 0)
(0.0987069 1.74907e-05 0)
(0.0985512 1.69512e-05 0)
(0.0983995 1.71276e-05 0)
(0.0982469 1.76834e-05 0)
(0.0980916 1.83721e-05 0)
(0.0979335 1.9062e-05 0)
(0.0977729 1.9705e-05 0)
(0.0976106 2.02953e-05 0)
(0.097447 2.08452e-05 0)
(0.0972826 2.13711e-05 0)
(0.0971174 2.18872e-05 0)
(0.0969517 2.2405e-05 0)
(0.0967855 2.29341e-05 0)
(0.0966187 2.34815e-05 0)
(0.0964513 2.40532e-05 0)
(0.0962833 2.46548e-05 0)
(0.0961143 2.52902e-05 0)
(0.0959444 2.59638e-05 0)
(0.0957734 2.66785e-05 0)
(0.0956011 2.74369e-05 0)
(0.0954273 2.82404e-05 0)
(0.095252 2.90907e-05 0)
(0.0950749 2.99881e-05 0)
(0.0948959 3.09325e-05 0)
(0.0947149 3.1924e-05 0)
(0.0945318 3.29621e-05 0)
(0.0943464 3.40469e-05 0)
(0.0941588 3.51785e-05 0)
(0.0939687 3.63574e-05 0)
(0.0937761 3.75844e-05 0)
(0.093581 3.88609e-05 0)
(0.0933833 4.01896e-05 0)
(0.0931829 4.15734e-05 0)
(0.0929797 4.30167e-05 0)
(0.0927736 4.45246e-05 0)
(0.0925644 4.61033e-05 0)
(0.0923522 4.77604e-05 0)
(0.0921366 4.95051e-05 0)
(0.0919175 5.13482e-05 0)
(0.0916948 5.33024e-05 0)
(0.0914681 5.53825e-05 0)
(0.0912371 5.76067e-05 0)
(0.0910015 5.99966e-05 0)
(0.0907608 6.2577e-05 0)
(0.0905147 6.53781e-05 0)
(0.0902624 6.84354e-05 0)
(0.0900034 7.17918e-05 0)
(0.0897367 7.54983e-05 0)
(0.0894616 7.9617e-05 0)
(0.0891769 8.4223e-05 0)
(0.0888812 8.94079e-05 0)
(0.0885731 9.52849e-05 0)
(0.0882506 0.000101994 0)
(0.0879117 0.000109709 0)
(0.0875535 0.000118652 0)
(0.087173 0.000129103 0)
(0.086766 0.000141424 0)
(0.0863278 0.000156084 0)
(0.0858521 0.000173704 0)
(0.0853315 0.000195113 0)
(0.0847561 0.000221432 0)
(0.0841134 0.000254213 0)
(0.0833868 0.000295625 0)
(0.0825547 0.000348771 0)
(0.0815874 0.000418168 0)
(0.0804444 0.000510523 0)
(0.0790689 0.000635998 0)
(0.0773799 0.000810316 0)
(0.07526 0.00105828 0)
(0.072536 0.00141981 0)
(0.0689351 0.00196238 0)
(0.0640372 0.00282038 0)
(0.0573551 0.00436709 0)
(0.049868 0.0082818 0)
(0.0999929 1.31161e-05 0)
(0.0999185 3.608e-05 0)
(0.0997547 5.87721e-05 0)
(0.0995316 7.10422e-05 0)
(0.0992944 7.15471e-05 0)
(0.0990755 6.53831e-05 0)
(0.0988845 5.83622e-05 0)
(0.0987161 5.37289e-05 0)
(0.09856 5.20687e-05 0)
(0.098408 5.25977e-05 0)
(0.0982553 5.42885e-05 0)
(0.0981001 5.63881e-05 0)
(0.0979421 5.84952e-05 0)
(0.0977819 6.046e-05 0)
(0.0976199 6.22664e-05 0)
(0.0974567 6.39509e-05 0)
(0.0972926 6.55624e-05 0)
(0.0971279 6.71445e-05 0)
(0.0969626 6.87332e-05 0)
(0.0967968 7.03566e-05 0)
(0.0966304 7.20367e-05 0)
(0.0964635 7.37919e-05 0)
(0.0962958 7.56383e-05 0)
(0.0961272 7.75892e-05 0)
(0.0959577 7.96566e-05 0)
(0.095787 8.185e-05 0)
(0.0956151 8.41771e-05 0)
(0.0954417 8.66433e-05 0)
(0.0952667 8.92522e-05 0)
(0.09509 9.2005e-05 0)
(0.0949114 9.49024e-05 0)
(0.0947308 9.79439e-05 0)
(0.094548 0.000101129 0)
(0.0943631 0.000104456 0)
(0.0941758 0.000107926 0)
(0.0939862 0.000111541 0)
(0.093794 0.000115303 0)
(0.0935994 0.000119218 0)
(0.0934021 0.000123291 0)
(0.0932022 0.000127534 0)
(0.0929995 0.000131958 0)
(0.0927939 0.000136581 0)
(0.0925853 0.000141419 0)
(0.0923736 0.000146498 0)
(0.0921587 0.000151844 0)
(0.0919403 0.000157491 0)
(0.0917182 0.000163478 0)
(0.0914922 0.000169849 0)
(0.0912621 0.000176662 0)
(0.0910273 0.000183979 0)
(0.0907876 0.000191879 0)
(0.0905424 0.000200451 0)
(0.0902912 0.000209805 0)
(0.0900334 0.000220071 0)
(0.0897681 0.000231405 0)
(0.0894945 0.000243993 0)
(0.0892114 0.000258065 0)
(0.0889177 0.000273897 0)
(0.0886118 0.000291833 0)
(0.088292 0.000312294 0)
(0.0879561 0.000335808 0)
(0.0876016 0.000363038 0)
(0.0872253 0.000394829 0)
(0.0868237 0.000432261 0)
(0.086392 0.000476739 0)
(0.0859247 0.000530107 0)
(0.0854146 0.000594815 0)
(0.0848529 0.00067417 0)
(0.0842283 0.000772698 0)
(0.0835263 0.000896696 0)
(0.0827281 0.00105506 0)
(0.0818088 0.00126058 0)
(0.0807357 0.00153193 0)
(0.0794648 0.00189679 0)
(0.0779372 0.00239668 0)
(0.0760747 0.00309428 0)
(0.0737757 0.00408363 0)
(0.0709075 0.00550317 0)
(0.0673247 0.00755131 0)
(0.0630828 0.0104468 0)
(0.0593665 0.0140218 0)
(0.0999939 2.20361e-05 0)
(0.0999231 6.13264e-05 0)
(0.0997649 0.000100259 0)
(0.0995475 0.000121549 0)
(0.0993141 0.000122751 0)
(0.0990966 0.000112458 0)
(0.0989055 0.000100572 0)
(0.0987361 9.26646e-05 0)
(0.098579 8.97844e-05 0)
(0.0984263 9.06301e-05 0)
(0.0982734 9.34668e-05 0)
(0.0981183 9.70163e-05 0)
(0.0979608 0.000100593 0)
(0.0978011 0.000103939 0)
(0.0976399 0.000107024 0)
(0.0974775 0.000109907 0)
(0.0973143 0.000112669 0)
(0.0971505 0.000115386 0)
(0.0969861 0.000118117 0)
(0.0968212 0.000120909 0)
(0.0966557 0.0001238 0)
(0.0964895 0.000126821 0)
(0.0963227 0.000129999 0)
(0.096155 0.000133358 0)
(0.0959862 0.000136916 0)
(0.0958164 0.000140691 0)
(0.0956452 0.000144695 0)
(0.0954726 0.000148937 0)
(0.0952984 0.000153423 0)
(0.0951225 0.000158156 0)
(0.0949446 0.000163137 0)
(0.0947648 0.000168364 0)
(0.0945829 0.000173836 0)
(0.0943988 0.000179552 0)
(0.0942124 0.000185513 0)
(0.0940236 0.000191721 0)
(0.0938324 0.00019818 0)
(0.0936387 0.0002049 0)
(0.0934424 0.000211893 0)
(0.0932435 0.000219175 0)
(0.0930419 0.000226767 0)
(0.0928374 0.000234697 0)
(0.09263 0.000242997 0)
(0.0924195 0.000251707 0)
(0.0922059 0.000260874 0)
(0.0919888 0.000270553 0)
(0.0917682 0.00028081 0)
(0.0915437 0.000291726 0)
(0.0913152 0.000303391 0)
(0.0910821 0.000315915 0)
(0.0908443 0.00032943 0)
(0.0906011 0.000344089 0)
(0.0903522 0.000360074 0)
(0.0900968 0.000377607 0)
(0.0898341 0.000396947 0)
(0.0895635 0.000418413 0)
(0.0892838 0.000442385 0)
(0.0889938 0.000469329 0)
(0.0886922 0.000499816 0)
(0.0883774 0.000534549 0)
(0.0880473 0.000574401 0)
(0.0876996 0.000620471 0)
(0.0873315 0.000674143 0)
(0.0869398 0.000737186 0)
(0.0865202 0.000811876 0)
(0.086068 0.000901183 0)
(0.0855769 0.00100901 0)
(0.0850398 0.00114058 0)
(0.0844472 0.00130291 0)
(0.083788 0.00150563 0)
(0.083048 0.00176204 0)
(0.0822097 0.00209076 0)
(0.0812519 0.00251807 0)
(0.0801488 0.00308127 0)
(0.0788711 0.00383307 0)
(0.0773891 0.00484679 0)
(0.0756801 0.00621977 0)
(0.0737441 0.00806904 0)
(0.0716433 0.010505 0)
(0.0696222 0.0135156 0)
(0.0683193 0.016521 0)
(0.0999948 3.08243e-05 0)
(0.0999294 8.69895e-05 0)
(0.0997804 0.000142944 0)
(0.0995721 0.000174139 0)
(0.099345 0.000176708 0)
(0.0991301 0.000162619 0)
(0.0989388 0.000145924 0)
(0.0987679 0.000134651 0)
(0.0986092 0.000130424 0)
(0.0984555 0.000131483 0)
(0.0983022 0.000135407 0)
(0.0981473 0.000140388 0)
(0.0979905 0.000145447 0)
(0.0978319 0.000150208 0)
(0.0976719 0.000154616 0)
(0.0975108 0.000158753 0)
(0.097349 0.000162729 0)
(0.0971866 0.000166648 0)
(0.0970236 0.000170593 0)
(0.0968601 0.000174632 0)
(0.096696 0.000178817 0)
(0.0965312 0.000183192 0)
(0.0963657 0.000187796 0)
(0.0961993 0.00019266 0)
(0.0960319 0.000197813 0)
(0.0958633 0.000203278 0)
(0.0956934 0.000209072 0)
(0.095522 0.000215209 0)
(0.0953491 0.000221696 0)
(0.0951744 0.000228537 0)
(0.0949978 0.000235734 0)
(0.0948193 0.000243283 0)
(0.0946386 0.000251184 0)
(0.0944558 0.000259436 0)
(0.0942708 0.000268037 0)
(0.0940835 0.000276993 0)
(0.0938937 0.00028631 0)
(0.0937015 0.000296 0)
(0.0935068 0.000306081 0)
(0.0933096 0.000316576 0)
(0.0931096 0.000327515 0)
(0.0929069 0.000338938 0)
(0.0927014 0.000350891 0)
(0.0924929 0.000363429 0)
(0.0922812 0.00037662 0)
(0.0920664 0.000390542 0)
(0.091848 0.00040529 0)
(0.091626 0.000420975 0)
(0.0914 0.000437729 0)
(0.0911697 0.000455705 0)
(0.0909349 0.000475088 0)
(0.0906949 0.000496095 0)
(0.0904495 0.000518984 0)
(0.0901979 0.000544063 0)
(0.0899395 0.000571697 0)
(0.0896735 0.00060233 0)
(0.089399 0.000636492 0)
(0.0891149 0.000674831 0)
(0.0888201 0.000718134 0)
(0.0885129 0.000767368 0)
(0.0881918 0.000823731 0)
(0.0878547 0.000888714 0)
(0.0874992 0.000964187 0)
(0.0871224 0.00105252 0)
(0.0867212 0.00115673 0)
(0.0862915 0.0012807 0)
(0.0858288 0.00142948 0)
(0.0853275 0.00160969 0)
(0.0847812 0.00183008 0)
(0.0841827 0.00210232 0)
(0.0835235 0.00244208 0)
(0.0827947 0.0028705 0)
(0.0819874 0.00341606 0)
(0.0810944 0.00411679 0)
(0.0801134 0.00502242 0)
(0.0790531 0.00619481 0)
(0.0779431 0.00770309 0)
(0.0768496 0.00960558 0)
(0.0758964 0.0119044 0)
(0.0752874 0.0144387 0)
(0.0752689 0.016659 0)
(0.0999957 3.92506e-05 0)
(0.0999372 0.000112377 0)
(0.0998005 0.000185917 0)
(0.0996049 0.000228055 0)
(0.0993868 0.000233053 0)
(0.0991758 0.000215901 0)
(0.0989845 0.000194708 0)
(0.0988117 0.000180069 0)
(0.0986511 0.000174341 0)
(0.098496 0.000175435 0)
(0.0983422 0.000180304 0)
(0.0981878 0.000186629 0)
(0.0980319 0.000193132 0)
(0.0978747 0.000199305 0)
(0.0977164 0.000205064 0)
(0.0975572 0.000210498 0)
(0.0973974 0.000215743 0)
(0.0972369 0.00022093 0)
(0.0970759 0.000226164 0)
(0.0969144 0.000231531 0)
(0.0967522 0.000237098 0)
(0.0965894 0.000242921 0)
(0.0964258 0.00024905 0)
(0.0962612 0.000255526 0)
(0.0960956 0.000262383 0)
(0.0959288 0.000269653 0)
(0.0957607 0.000277357 0)
(0.0955911 0.000285512 0)
(0.0954198 0.000294128 0)
(0.0952469 0.000303208 0)
(0.0950721 0.000312754 0)
(0.0948953 0.000322764 0)
(0.0947165 0.000333234 0)
(0.0945356 0.000344164 0)
(0.0943525 0.000355554 0)
(0.0941672 0.000367408 0)
(0.0939795 0.000379736 0)
(0.0937895 0.000392552 0)
(0.093597 0.000405881 0)
(0.093402 0.000419753 0)
(0.0932045 0.000434207 0)
(0.0930043 0.000449294 0)
(0.0928014 0.000465073 0)
(0.0925956 0.000481617 0)
(0.0923869 0.000499013 0)
(0.0921751 0.000517364 0)
(0.09196 0.00053679 0)
(0.0917414 0.000557436 0)
(0.0915191 0.000579469 0)
(0.0912927 0.00060309 0)
(0.091062 0.000628534 0)
(0.0908266 0.000656079 0)
(0.0905861 0.000686054 0)
(0.0903399 0.000718851 0)
(0.0900874 0.000754934 0)
(0.089828 0.000794864 0)
(0.0895609 0.000839309 0)
(0.0892851 0.000889078 0)
(0.0889997 0.000945154 0)
(0.0887033 0.00100874 0)
(0.0883947 0.00108129 0)
(0.0880721 0.00116464 0)
(0.0877338 0.00126104 0)
(0.0873776 0.00137331 0)
(0.0870012 0.001505 0)
(0.0866018 0.00166062 0)
(0.0861765 0.0018459 0)
(0.085722 0.00206817 0)
(0.085235 0.00233692 0)
(0.0847125 0.00266435 0)
(0.0841518 0.00306625 0)
(0.083552 0.00356294 0)
(0.0829149 0.00418024 0)
(0.0822477 0.00495018 0)
(0.0815665 0.00591068 0)
(0.0809013 0.00710252 0)
(0.080303 0.00856045 0)
(0.0798502 0.0102932 0)
(0.0796513 0.0122457 0)
(0.0798281 0.0142366 0)
(0.0804468 0.015885 0)
(0.0999967 4.70528e-05 0)
(0.0999462 0.000136738 0)
(0.0998244 0.000228171 0)
(0.0996445 0.000282414 0)
(0.0994379 0.000291304 0)
(0.0992322 0.00027225 0)
(0.0990414 0.000247163 0)
(0.0988669 0.000229271 0)
(0.098704 0.000221879 0)
(0.0985475 0.000222755 0)
(0.0983933 0.000228341 0)
(0.0982395 0.000235847 0)
(0.098085 0.0002437 0)
(0.0979296 0.000251248 0)
(0.0977735 0.000258357 0)
(0.0976167 0.000265116 0)
(0.0974593 0.00027168 0)
(0.0973014 0.000278198 0)
(0.097143 0.000284796 0)
(0.096984 0.000291574 0)
(0.0968244 0.000298616 0)
(0.096664 0.000305988 0)
(0.0965028 0.000313748 0)
(0.0963406 0.000321946 0)
(0.0961774 0.000330626 0)
(0.0960129 0.000339822 0)
(0.095847 0.00034956 0)
(0.0956797 0.00035986 0)
(0.0955107 0.000370733 0)
(0.0953401 0.000382184 0)
(0.0951676 0.000394213 0)
(0.0949932 0.000406818 0)
(0.0948168 0.000419995 0)
(0.0946383 0.000433741 0)
(0.0944577 0.000448058 0)
(0.094275 0.000462951 0)
(0.09409 0.000478432 0)
(0.0939028 0.00049452 0)
(0.0937132 0.000511242 0)
(0.0935213 0.000528637 0)
(0.0933269 0.000546754 0)
(0.09313 0.000565653 0)
(0.0929306 0.000585408 0)
(0.0927284 0.000606107 0)
(0.0925235 0.000627856 0)
(0.0923157 0.000650781 0)
(0.0921049 0.000675028 0)
(0.0918908 0.000700772 0)
(0.0916733 0.000728216 0)
(0.0914521 0.000757602 0)
(0.0912269 0.000789213 0)
(0.0909975 0.000823382 0)
(0.0907634 0.000860503 0)
(0.0905243 0.000901043 0)
(0.0902797 0.000945554 0)
(0.0900289 0.000994694 0)
(0.0897714 0.00104925 0)
(0.0895065 0.00111017 0)
(0.0892333 0.00117858 0)
(0.088951 0.00125587 0)
(0.0886585 0.0013437 0)
(0.0883547 0.00144411 0)
(0.0880384 0.00155962 0)
(0.0877082 0.0016933 0)
(0.0873629 0.00184897 0)
(0.087001 0.00203136 0)
(0.0866214 0.00224635 0)
(0.0862231 0.00250128 0)
(0.0858057 0.00280528 0)
(0.0853699 0.00316967 0)
(0.0849181 0.00360842 0)
(0.0844555 0.00413847 0)
(0.0839914 0.00477987 0)
(0.0835414 0.00555528 0)
(0.0831301 0.00648819 0)
(0.082794 0.00759864 0)
(0.0825842 0.00889472 0)
(0.0825661 0.0103575 0)
(0.0828131 0.0119186 0)
(0.0833846 0.0134331 0)
(0.0842789 0.0146664 0)
(0.0999976 5.3983e-05 0)
(0.0999558 0.000159364 0)
(0.0998504 0.000268712 0)
(0.0996885 0.000336286 0)
(0.0994953 0.000350876 0)
(0.0992966 0.000331493 0)
(0.0991073 0.000303417 0)
(0.0989314 0.000282529 0)
(0.0987666 0.000273325 0)
(0.0986088 0.000273679 0)
(0.0984545 0.000279677 0)
(0.0983015 0.000288133 0)
(0.0981487 0.000297185 0)
(0.0979957 0.000306028 0)
(0.0978422 0.000314462 0)
(0.0976883 0.000322559 0)
(0.0975339 0.00033048 0)
(0.0973791 0.000338388 0)
(0.0972238 0.000346424 0)
(0.0970679 0.000354701 0)
(0.0969113 0.000363313 0)
(0.0967539 0.000372338 0)
(0.0965957 0.000381842 0)
(0.0964364 0.000391882 0)
(0.096276 0.000402505 0)
(0.0961143 0.000413752 0)
(0.0959512 0.000425652 0)
(0.0957867 0.000438227 0)
(0.0956205 0.000451487 0)
(0.0954527 0.000465439 0)
(0.095283 0.000480081 0)
(0.0951115 0.00049541 0)
(0.0949381 0.000511423 0)
(0.0947627 0.000528114 0)
(0.0945852 0.000545487 0)
(0.0944057 0.000563546 0)
(0.0942241 0.000582307 0)
(0.0940403 0.000601791 0)
(0.0938544 0.000622032 0)
(0.0936662 0.000643074 0)
(0.0934757 0.000664975 0)
(0.093283 0.000687804 0)
(0.0930878 0.000711648 0)
(0.0928902 0.000736612 0)
(0.0926901 0.000762817 0)
(0.0924873 0.000790409 0)
(0.0922817 0.000819559 0)
(0.0920733 0.000850468 0)
(0.0918618 0.000883372 0)
(0.091647 0.000918548 0)
(0.0914288 0.000956319 0)
(0.0912069 0.000997066 0)
(0.0909809 0.00104124 0)
(0.0907507 0.00108936 0)
(0.0905158 0.00114205 0)
(0.0902758 0.00120005 0)
(0.0900303 0.00126423 0)
(0.0897789 0.00133563 0)
(0.0895209 0.00141547 0)
(0.0892558 0.00150526 0)
(0.0889831 0.00160675 0)
(0.0887021 0.0017221 0)
(0.0884124 0.00185389 0)
(0.0881134 0.00200523 0)
(0.0878048 0.0021799 0)
(0.0874866 0.00238246 0)
(0.0871592 0.00261843 0)
(0.0868236 0.00289442 0)
(0.0864821 0.00321836 0)
(0.0861381 0.0035996 0)
(0.0857976 0.00404899 0)
(0.0854694 0.00457878 0)
(0.0851665 0.00520215 0)
(0.0849077 0.00593212 0)
(0.0847184 0.0067794 0)
(0.0846319 0.00774857 0)
(0.0846893 0.00883193 0)
(0.0849365 0.0100007 0)
(0.0854158 0.0111942 0)
(0.0861506 0.0123118 0)
(0.0871202 0.0132167 0)
(0.0999984 5.98659e-05 0)
(0.0999652 0.000179691 0)
(0.0998767 0.000306686 0)
(0.0997337 0.000388787 0)
(0.0995556 0.000411121 0)
(0.0993654 0.000393313 0)
(0.0991789 0.000363434 0)
(0.0990027 0.000339973 0)
(0.0988366 0.000328862 0)
(0.098678 0.00032837 0)
(0.0985239 0.000334427 0)
(0.0983722 0.000343543 0)
(0.0982215 0.000353598 0)
(0.0980711 0.000363622 0)
(0.0979208 0.000373329 0)
(0.0977702 0.00038276 0)
(0.0976193 0.000392068 0)
(0.0974681 0.000401421 0)
(0.0973163 0.000410967 0)
(0.0971639 0.00042083 0)
(0.0970109 0.000431113 0)
(0.096857 0.0004419 0)
(0.0967021 0.000453263 0)
(0.0965462 0.000465265 0)
(0.0963892 0.000477958 0)
(0.0962308 0.000491385 0)
(0.096071 0.000505576 0)
(0.0959097 0.000520553 0)
(0.0957468 0.000536329 0)
(0.0955823 0.000552907 0)
(0.095416 0.000570286 0)
(0.0952479 0.000588462 0)
(0.095078 0.000607427 0)
(0.0949062 0.00062718 0)
(0.0947325 0.00064772 0)
(0.0945569 0.000669055 0)
(0.0943792 0.000691202 0)
(0.0941996 0.000714184 0)
(0.094018 0.000738042 0)
(0.0938343 0.000762823 0)
(0.0936485 0.000788592 0)
(0.0934607 0.000815431 0)
(0.0932707 0.000843434 0)
(0.0930785 0.000872719 0)
(0.0928841 0.000903424 0)
(0.0926873 0.000935711 0)
(0.0924881 0.000969769 0)
(0.0922865 0.00100582 0)
(0.0920822 0.00104413 0)
(0.0918752 0.001085 0)
(0.0916653 0.00112879 0)
(0.0914524 0.00117591 0)
(0.0912362 0.00122684 0)
(0.0910167 0.00128216 0)
(0.0907935 0.00134253 0)
(0.0905664 0.00140873 0)
(0.0903353 0.00148167 0)
(0.0900999 0.00156243 0)
(0.0898599 0.0016523 0)
(0.0896152 0.00175276 0)
(0.0893657 0.00186559 0)
(0.0891112 0.00199289 0)
(0.088852 0.00213715 0)
(0.0885884 0.00230128 0)
(0.0883209 0.00248873 0)
(0.0880508 0.00270354 0)
(0.0877797 0.00295039 0)
(0.0875102 0.0032347 0)
(0.0872463 0.00356258 0)
(0.0869934 0.00394082 0)
(0.086759 0.00437672 0)
(0.0865535 0.00487766 0)
(0.0863905 0.00545044 0)
(0.0862877 0.00610016 0)
(0.0862668 0.00682832 0)
(0.0863541 0.00763025 0)
(0.0865781 0.00849144 0)
(0.086967 0.00938332 0)
(0.0875422 0.0102595 0)
(0.0883092 0.0110548 0)
(0.0892464 0.0116916 0)
(0.099999 6.46369e-05 0)
(0.0999738 0.000197387 0)
(0.0999012 0.000341498 0)
(0.0997771 0.00043919 0)
(0.0996148 0.000471377 0)
(0.0994345 0.000457249 0)
(0.0992525 0.00042698 0)
(0.0990774 0.000401539 0)
(0.0989112 0.00038852 0)
(0.0987526 0.000386887 0)
(0.0985993 0.00039264 0)
(0.0984493 0.0004021 0)
(0.0983011 0.00041293 0)
(0.0981538 0.000423991 0)
(0.0980069 0.000434901 0)
(0.0978601 0.000445648 0)
(0.0977131 0.000456363 0)
(0.0975657 0.000467209 0)
(0.0974179 0.000478337 0)
(0.0972695 0.000489874 0)
(0.0971203 0.000501928 0)
(0.0969703 0.000514587 0)
(0.0968193 0.000527928 0)
(0.0966672 0.000542016 0)
(0.0965138 0.000556906 0)
(0.0963592 0.000572639 0)
(0.0962031 0.000589248 0)
(0.0960455 0.000606753 0)
(0.0958864 0.000625166 0)
(0.0957257 0.000644489 0)
(0.0955633 0.000664719 0)
(0.0953991 0.000685848 0)
(0.0952333 0.000707871 0)
(0.0950656 0.000730781 0)
(0.0948962 0.000754581 0)
(0.094725 0.000779278 0)
(0.094552 0.000804889 0)
(0.0943772 0.000831443 0)
(0.0942006 0.000858979 0)
(0.0940221 0.000887553 0)
(0.0938418 0.000917235 0)
(0.0936597 0.000948112 0)
(0.0934756 0.000980288 0)
(0.0932898 0.00101389 0)
(0.093102 0.00104907 0)
(0.0929122 0.00108599 0)
(0.0927205 0.00112487 0)
(0.0925268 0.00116594 0)
(0.0923309 0.00120948 0)
(0.092133 0.00125581 0)
(0.0919328 0.00130531 0)
(0.0917304 0.0013584 0)
(0.0915257 0.00141559 0)
(0.0913185 0.00147746 0)
(0.091109 0.0015447 0)
(0.0908969 0.00161808 0)
(0.0906823 0.00169853 0)
(0.0904653 0.00178709 0)
(0.090246 0.00188501 0)
(0.0900244 0.00199372 0)
(0.0898009 0.00211486 0)
(0.0895761 0.00225037 0)
(0.0893505 0.00240244 0)
(0.0891252 0.00257361 0)
(0.0889016 0.00276675 0)
(0.0886818 0.00298509 0)
(0.0884683 0.00323224 0)
(0.0882648 0.00351208 0)
(0.088076 0.00382873 0)
(0.0879082 0.00418635 0)
(0.0877691 0.00458884 0)
(0.0876687 0.00503943 0)
(0.0876192 0.00553998 0)
(0.0876351 0.00609007 0)
(0.0877329 0.00668581 0)
(0.0879306 0.00731827 0)
(0.0882461 0.00797182 0)
(0.0886947 0.00862254 0)
(0.0892851 0.00923759 0)
(0.0900151 0.00977642 0)
(0.0908671 0.0101953 0)
(0.0999995 6.83509e-05 0)
(0.0999808 0.000212397 0)
(0.0999225 0.000372877 0)
(0.0998161 0.000486995 0)
(0.0996697 0.000531029 0)
(0.0995005 0.000522728 0)
(0.0993247 0.000493621 0)
(0.0991524 0.000466956 0)
(0.0989875 0.000452158 0)
(0.09883 0.000449169 0)
(0.0986783 0.000454288 0)
(0.0985305 0.000463782 0)
(0.0983852 0.000475149 0)
(0.0982414 0.000487093 0)
(0.0980982 0.000499121 0)
(0.0979554 0.000511155 0)
(0.0978125 0.000523291 0)
(0.0976694 0.000535675 0)
(0.0975258 0.000548452 0)
(0.0973816 0.000561749 0)
(0.0972367 0.000575672 0)
(0.0970908 0.000590314 0)
(0.096944 0.00060575 0)
(0.096796 0.000622046 0)
(0.0966467 0.000639254 0)
(0.0964961 0.000657418 0)
(0.0963442 0.000676566 0)
(0.0961907 0.000696716 0)
(0.0960358 0.000717879 0)
(0.0958793 0.000740052 0)
(0.0957212 0.000763231 0)
(0.0955615 0.000787406 0)
(0.0954002 0.000812568 0)
(0.0952372 0.000838712 0)
(0.0950727 0.000865838 0)
(0.0949065 0.000893953 0)
(0.0947387 0.000923074 0)
(0.0945693 0.000953233 0)
(0.0943983 0.000984471 0)
(0.0942258 0.00101685 0)
(0.0940517 0.00105043 0)
(0.093876 0.00108532 0)
(0.0936988 0.00112161 0)
(0.0935201 0.00115945 0)
(0.0933398 0.00119899 0)
(0.0931581 0.0012404 0)
(0.0929749 0.00128391 0)
(0.0927901 0.00132974 0)
(0.0926039 0.00137819 0)
(0.0924163 0.00142958 0)
(0.0922272 0.00148428 0)
(0.0920367 0.00154273 0)
(0.0918449 0.00160543 0)
(0.0916519 0.00167294 0)
(0.0914577 0.00174592 0)
(0.0912625 0.00182512 0)
(0.0910665 0.0019114 0)
(0.09087 0.00200573 0)
(0.0906733 0.00210925 0)
(0.0904771 0.00222321 0)
(0.0902819 0.00234906 0)
(0.0900887 0.0024884 0)
(0.0898987 0.00264304 0)
(0.0897133 0.00281496 0)
(0.0895346 0.00300632 0)
(0.089365 0.0032194 0)
(0.0892077 0.00345659 0)
(0.0890667 0.00372025 0)
(0.0889469 0.00401259 0)
(0.0888542 0.00433543 0)
(0.0887959 0.00468996 0)
(0.0887805 0.0050763 0)
(0.0888175 0.00549307 0)
(0.0889176 0.00593671 0)
(0.0890922 0.00640089 0)
(0.0893524 0.00687579 0)
(0.0897079 0.00734747 0)
(0.0901657 0.00779771 0)
(0.0907279 0.00820431 0)
(0.0913895 0.00854255 0)
(0.0921368 0.00878792 0)
(0.0999998 7.11642e-05 0)
(0.0999862 0.000224917 0)
(0.0999398 0.000400876 0)
(0.0998491 0.000531965 0)
(0.099718 0.000589571 0)
(0.0995607 0.000589122 0)
(0.0993926 0.000562769 0)
(0.0992249 0.000535767 0)
(0.0990629 0.000519468 0)
(0.0989077 0.000515027 0)
(0.0987584 0.00051926 0)
(0.0986135 0.000528519 0)
(0.0984715 0.000540202 0)
(0.0983314 0.000552877 0)
(0.0981923 0.000565936 0)
(0.0980536 0.000579222 0)
(0.0979151 0.000592787 0)
(0.0977764 0.000606749 0)
(0.0976373 0.000621239 0)
(0.0974975 0.000636378 0)
(0.097357 0.000652268 0)
(0.0972156 0.000668997 0)
(0.0970731 0.00068664 0)
(0.0969295 0.000705258 0)
(0.0967847 0.000724902 0)
(0.0966385 0.000745609 0)
(0.096491 0.000767406 0)
(0.096342 0.000790306 0)
(0.0961916 0.000814315 0)
(0.0960398 0.000839427 0)
(0.0958864 0.000865634 0)
(0.0957316 0.000892923 0)
(0.0955753 0.000921283 0)
(0.0954176 0.000950707 0)
(0.0952584 0.000981193 0)
(0.0950978 0.00101275 0)
(0.0949358 0.00104539 0)
(0.0947724 0.00107914 0)
(0.0946077 0.00111405 0)
(0.0944418 0.00115018 0)
(0.0942745 0.00118759 0)
(0.0941061 0.00122639 0)
(0.0939365 0.00126668 0)
(0.0937658 0.00130859 0)
(0.0935939 0.00135227 0)
(0.0934211 0.00139791 0)
(0.0932473 0.00144571 0)
(0.0930727 0.00149591 0)
(0.0928972 0.00154879 0)
(0.0927211 0.00160465 0)
(0.0925443 0.00166387 0)
(0.0923672 0.00172683 0)
(0.0921897 0.00179403 0)
(0.0920122 0.00186596 0)
(0.0918349 0.00194324 0)
(0.0916582 0.00202654 0)
(0.0914824 0.0021166 0)
(0.091308 0.00221427 0)
(0.0911357 0.00232048 0)
(0.0909664 0.00243628 0)
(0.0908008 0.00256279 0)
(0.0906404 0.00270124 0)
(0.0904864 0.00285293 0)
(0.0903409 0.00301922 0)
(0.090206 0.00320149 0)
(0.0900845 0.00340108 0)
(0.0899795 0.00361921 0)
(0.0898949 0.00385688 0)
(0.0898353 0.00411469 0)
(0.0898058 0.00439271 0)
(0.0898124 0.00469017 0)
(0.0898615 0.00500528 0)
(0.0899602 0.00533488 0)
(0.0901155 0.00567411 0)
(0.0903344 0.00601619 0)
(0.090623 0.00635216 0)
(0.0909857 0.00667088 0)
(0.0914247 0.00695919 0)
(0.0919386 0.0072026 0)
(0.092522 0.0073862 0)
(0.0931646 0.00749625 0)
(0.0999999 7.32933e-05 0)
(0.09999 0.000235327 0)
(0.0999529 0.000425807 0)
(0.0998757 0.000574106 0)
(0.0997588 0.000646634 0)
(0.0996136 0.000655817 0)
(0.0994545 0.000633752 0)
(0.099293 0.000607385 0)
(0.0991354 0.000590011 0)
(0.0989837 0.000584165 0)
(0.0988378 0.000587368 0)
(0.0986963 0.000596192 0)
(0.0985581 0.000608009 0)
(0.098422 0.000621281 0)
(0.0982871 0.00063529 0)
(0.0981528 0.000649797 0)
(0.0980188 0.000664796 0)
(0.0978846 0.000680372 0)
(0.0977501 0.000696636 0)
(0.0976149 0.000713693 0)
(0.097479 0.000731639 0)
(0.0973422 0.000750553 0)
(0.0972043 0.000770505 0)
(0.0970653 0.00079155 0)
(0.0969251 0.000813732 0)
(0.0967836 0.000837082 0)
(0.0966409 0.000861621 0)
(0.0964967 0.000887355 0)
(0.0963512 0.000914285 0)
(0.0962044 0.000942402 0)
(0.0960562 0.00097169 0)
(0.0959067 0.00100213 0)
(0.0957559 0.00103372 0)
(0.0956038 0.00106643 0)
(0.0954505 0.00110028 0)
(0.095296 0.00113525 0)
(0.0951403 0.00117136 0)
(0.0949836 0.00120865 0)
(0.0948258 0.00124715 0)
(0.0946671 0.00128692 0)
(0.0945074 0.00132803 0)
(0.0943469 0.00137055 0)
(0.0941856 0.00141461 0)
(0.0940237 0.00146032 0)
(0.0938612 0.00150782 0)
(0.0936981 0.0015573 0)
(0.0935348 0.00160893 0)
(0.0933712 0.00166295 0)
(0.0932075 0.0017196 0)
(0.0930439 0.00177917 0)
(0.0928806 0.00184197 0)
(0.0927179 0.00190839 0)
(0.092556 0.00197881 0)
(0.0923953 0.00205369 0)
(0.0922362 0.00213353 0)
(0.0920792 0.00221888 0)
(0.0919248 0.00231034 0)
(0.0917737 0.00240858 0)
(0.0916267 0.0025143 0)
(0.0914849 0.00262823 0)
(0.0913494 0.00275117 0)
(0.0912215 0.00288391 0)
(0.091103 0.00302722 0)
(0.0909958 0.00318184 0)
(0.0909021 0.00334841 0)
(0.0908245 0.00352741 0)
(0.0907661 0.00371908 0)
(0.0907302 0.00392334 0)
(0.0907206 0.00413963 0)
(0.0907415 0.00436681 0)
(0.0907973 0.00460299 0)
(0.0908925 0.00484542 0)
(0.0910317 0.00509027 0)
(0.0912193 0.00533259 0)
(0.0914589 0.00556621 0)
(0.0917533 0.0057838 0)
(0.0921038 0.00597698 0)
(0.0925099 0.00613671 0)
(0.0929691 0.00625372 0)
(0.0934763 0.00631914 0)
(0.0940237 0.00632528 0)
(0.0999999 7.49687e-05 0)
(0.0999924 0.0002441 0)
(0.0999623 0.000448147 0)
(0.0998962 0.000613612 0)
(0.099792 0.000702005 0)
(0.0996587 0.000722275 0)
(0.0995095 0.000705894 0)
(0.0993556 0.000681167 0)
(0.0992037 0.000663263 0)
(0.0990567 0.000656205 0)
(0.0989149 0.000658358 0)
(0.0987776 0.000666636 0)
(0.0986435 0.000678462 0)
(0.0985116 0.000692228 0)
(0.0983811 0.000707122 0)
(0.0982514 0.000722823 0)
(0.0981219 0.000739264 0)
(0.0979924 0.000756489 0)
(0.0978626 0.00077458 0)
(0.0977321 0.000793626 0)
(0.0976009 0.000813707 0)
(0.0974688 0.000834893 0)
(0.0973358 0.000857243 0)
(0.0972016 0.000880802 0)
(0.0970663 0.000905606 0)
(0.0969297 0.000931678 0)
(0.096792 0.000959028 0)
(0.0966529 0.000987658 0)
(0.0965127 0.00101756 0)
(0.0963712 0.00104871 0)
(0.0962286 0.0010811 0)
(0.0960848 0.00111471 0)
(0.0959399 0.00114951 0)
(0.095794 0.00118549 0)
(0.095647 0.00122264 0)
(0.0954991 0.00126096 0)
(0.0953503 0.00130046 0)
(0.0952008 0.00134116 0)
(0.0950505 0.0013831 0)
(0.0948996 0.00142632 0)
(0.0947481 0.00147088 0)
(0.0945962 0.00151687 0)
(0.094444 0.00156438 0)
(0.0942916 0.00161351 0)
(0.0941392 0.00166439 0)
(0.0939868 0.00171717 0)
(0.0938347 0.00177203 0)
(0.093683 0.00182914 0)
(0.093532 0.00188873 0)
(0.093382 0.00195103 0)
(0.0932331 0.00201632 0)
(0.0930859 0.00208487 0)
(0.0929405 0.00215702 0)
(0.0927976 0.00223311 0)
(0.0926575 0.00231351 0)
(0.092521 0.00239864 0)
(0.0923886 0.00248891 0)
(0.0922613 0.00258476 0)
(0.0921399 0.00268662 0)
(0.0920255 0.00279495 0)
(0.0919194 0.00291014 0)
(0.091823 0.00303257 0)
(0.091738 0.00316251 0)
(0.0916661 0.00330014 0)
(0.0916096 0.00344547 0)
(0.0915707 0.00359829 0)
(0.0915519 0.00375811 0)
(0.0915561 0.00392408 0)
(0.0915861 0.00409492 0)
(0.0916449 0.00426883 0)
(0.0917356 0.00444343 0)
(0.0918612 0.00461569 0)
(0.0920242 0.00478185 0)
(0.092227 0.00493749 0)
(0.0924711 0.00507751 0)
(0.0927572 0.00519632 0)
(0.093085 0.00528793 0)
(0.0934529 0.00534632 0)
(0.0938581 0.00536569 0)
(0.0942961 0.00534088 0)
(0.0947614 0.00526765 0)
(0.0999998 7.63988e-05 0)
(0.0999938 0.000251714 0)
(0.0999687 0.000468437 0)
(0.0999114 0.000650802 0)
(0.0998184 0.000755611 0)
(0.0996966 0.000788069 0)
(0.0995577 0.000778579 0)
(0.0994122 0.000756471 0)
(0.0992672 0.000738672 0)
(0.0991258 0.000730719 0)
(0.098989 0.000731924 0)
(0.0988563 0.000739641 0)
(0.0987267 0.000751416 0)
(0.0985993 0.000765617 0)
(0.0984734 0.000781356 0)
(0.0983483 0.000798236 0)
(0.0982236 0.000816129 0)
(0.0980988 0.000835033 0)
(0.0979737 0.000855 0)
(0.0978481 0.000876094 0)
(0.0977217 0.000898377 0)
(0.0975945 0.000921905 0)
(0.0974664 0.000946723 0)
(0.0973372 0.000972864 0)
(0.097207 0.00100035 0)
(0.0970756 0.0010292 0)
(0.0969431 0.0010594 0)
(0.0968096 0.00109095 0)
(0.0966749 0.00112384 0)
(0.0965392 0.00115804 0)
(0.0964025 0.00119351 0)
(0.0962648 0.00123024 0)
(0.0961262 0.0012682 0)
(0.0959868 0.00130737 0)
(0.0958467 0.00134772 0)
(0.0957059 0.00138926 0)
(0.0955645 0.00143199 0)
(0.0954227 0.00147592 0)
(0.0952805 0.00152106 0)
(0.095138 0.00156747 0)
(0.0949954 0.00161518 0)
(0.0948527 0.00166426 0)
(0.0947102 0.00171479 0)
(0.0945681 0.00176684 0)
(0.0944264 0.00182052 0)
(0.0942854 0.00187595 0)
(0.0941453 0.00193326 0)
(0.0940063 0.0019926 0)
(0.0938688 0.00205412 0)
(0.0937331 0.00211801 0)
(0.0935994 0.00218445 0)
(0.0934683 0.00225365 0)
(0.0933402 0.00232582 0)
(0.0932156 0.0024012 0)
(0.0930951 0.00248001 0)
(0.0929794 0.00256248 0)
(0.0928692 0.00264884 0)
(0.0927654 0.00273929 0)
(0.092669 0.002834 0)
(0.0925811 0.00293311 0)
(0.0925029 0.00303669 0)
(0.0924358 0.00314471 0)
(0.0923813 0.00325703 0)
(0.092341 0.00337336 0)
(0.0923167 0.00349324 0)
(0.0923104 0.00361597 0)
(0.092324 0.00374057 0)
(0.0923595 0.00386576 0)
(0.0924191 0.00398989 0)
(0.0925048 0.00411094 0)
(0.0926184 0.00422645 0)
(0.0927616 0.00433355 0)
(0.0929357 0.00442895 0)
(0.0931416 0.004509 0)
(0.0933796 0.00456976 0)
(0.0936493 0.00460715 0)
(0.0939497 0.00461708 0)
(0.0942787 0.00459564 0)
(0.0946339 0.00453932 0)
(0.0950115 0.00444521 0)
(0.0954074 0.00431102 0)
(0.0999997 7.77504e-05 0)
(0.0999944 0.000258604 0)
(0.0999728 0.000487211 0)
(0.0999225 0.000686052 0)
(0.0998392 0.000807492 0)
(0.0997282 0.000852897 0)
(0.0995995 0.000851284 0)
(0.0994631 0.000832707 0)
(0.0993256 0.000815687 0)
(0.0991907 0.000807254 0)
(0.0990595 0.00080772 0)
(0.0989318 0.000814952 0)