/*--------------------------------*- C++ -*----------------------------------*\
| =========                 |                                                 |
| \\      /  F ield         | OpenFOAM: The Open Source CFD Toolbox           |
|  \\    /   O peration     | Version:  2106                                  |
|   \\  /    A nd           | Website:  www.openfoam.com                      |
|    \\/     M anipulation  |                                                 |
\*---------------------------------------------------------------------------*/
FoamFile
{
    version     2.0;
    format      ascii;
    arch        "LSB;label=32;scalar=64";
    class       surfaceScalarField;
    location    "3.8";
    object      phi;
}
// * * * * * * * * * * * * * * * * * * * * * * * * * * * * * * * * * * * * * //

dimensions      [1 0 -1 0 0 0 0];

oriented        oriented;

internalField   nonuniform List<scalar> 
23692
(
9.31621e-05
-8.26373e-08
9.33117e-05
-1.49506e-07
9.35205e-05
-2.08745e-07
9.37812e-05
-2.6058e-07
9.40881e-05
-3.06741e-07
9.44366e-05
-3.48293e-07
9.48228e-05
-3.85954e-07
9.52434e-05
-4.20284e-07
9.56954e-05
-4.51728e-07
9.61764e-05
-4.80641e-07
9.6684e-05
-5.07305e-07
9.72164e-05
-5.31954e-07
9.77716e-05
-5.54782e-07
9.8348e-05
-5.75946e-07
9.8944e-05
-5.95585e-07
9.95583e-05
-6.13807e-07
0.00010019
-6.30706e-07
0.000100836
-6.46359e-07
0.000101498
-6.60833e-07
0.000102173
-6.74178e-07
0.00010286
-6.86442e-07
0.000103558
-6.97659e-07
0.000104266
-7.07864e-07
0.000104984
-7.17084e-07
0.00010571
-7.25337e-07
0.000106443
-7.32647e-07
0.000107183
-7.39029e-07
0.000107928
-7.44501e-07
0.000108678
-7.49077e-07
0.000109431
-7.52768e-07
0.000110187
-7.55591e-07
0.000110945
-7.57555e-07
0.000111705
-7.58672e-07
0.000112464
-7.58951e-07
0.000113223
-7.58399e-07
0.000113981
-7.57024e-07
0.000114736
-7.54827e-07
0.000115489
-7.51808e-07
0.000116237
-7.47965e-07
0.000116981
-7.43291e-07
0.00011772
-7.37775e-07
0.000118452
-7.31401e-07
0.000119176
-7.24146e-07
0.000119893
-7.15982e-07
0.0001206
-7.06874e-07
0.000121298
-6.96781e-07
0.000121984
-6.8565e-07
0.000122658
-6.73419e-07
0.000123318
-6.60017e-07
0.000123964
-6.4536e-07
0.000124594
-6.29347e-07
0.000125206
-6.11862e-07
0.0001258
-5.92769e-07
0.000126372
-5.71908e-07
0.000126922
-5.49089e-07
0.000127446
-5.24091e-07
0.000127943
-4.96649e-07
0.00012841
-4.66447e-07
0.000128844
-4.33105e-07
0.00012924
-3.96165e-07
0.000129596
-3.55066e-07
0.000129905
-3.09121e-07
0.000130163
-2.57472e-07
0.000130362
-1.99046e-07
0.000130495
-1.32483e-07
0.000130551
-5.60372e-08
0.000130519
3.2571e-08
0.000130383
1.36431e-07
0.000130124
2.59739e-07
0.000129716
4.08293e-07
0.000129126
5.90301e-07
0.000128308
8.17677e-07
0.0001272
1.10817e-06
0.000125712
1.48895e-06
0.000123709
2.00281e-06
0.00012099
2.71896e-06
0.000117239
3.75169e-06
0.000111945
5.29459e-06
0.000104246
7.69948e-06
9.25692e-05
1.16766e-05
1.92269e-05
7.33425e-05
9.96854e-05
-1.68923e-07
9.98445e-05
-3.08616e-07
0.000100067
-4.31423e-07
0.000100346
-5.38691e-07
0.000100673
-6.34251e-07
0.000101045
-7.20258e-07
0.000101458
-7.98191e-07
0.000101907
-8.69232e-07
0.00010239
-9.34298e-07
0.000102904
-9.94116e-07
0.000103446
-1.04928e-06
0.000104015
-1.10026e-06
0.000104608
-1.14748e-06
0.000105224
-1.19125e-06
0.000105861
-1.23186e-06
0.000106517
-1.26953e-06
0.000107191
-1.30447e-06
0.000107882
-1.33682e-06
0.000108589
-1.36673e-06
0.000109309
-1.39431e-06
0.000110043
-1.41964e-06
0.000110789
-1.44281e-06
0.000111546
-1.46389e-06
0.000112312
-1.48291e-06
0.000113087
-1.49994e-06
0.00011387
-1.51502e-06
0.00011466
-1.52817e-06
0.000115456
-1.53944e-06
0.000116256
-1.54885e-06
0.000117061
-1.55644e-06
0.000117868
-1.56222e-06
0.000118677
-1.56623e-06
0.000119488
-1.56848e-06
0.000120299
-1.56899e-06
0.000121109
-1.56779e-06
0.000121917
-1.56488e-06
0.000122723
-1.56027e-06
0.000123526
-1.55396e-06
0.000124325
-1.54594e-06
0.000125118
-1.53621e-06
0.000125906
-1.52473e-06
0.000126687
-1.51148e-06
0.000127459
-1.49641e-06
0.000128223
-1.47946e-06
0.000128978
-1.46056e-06
0.000129721
-1.43962e-06
0.000130453
-1.41654e-06
0.000131171
-1.39119e-06
0.000131875
-1.36343e-06
0.000132563
-1.33308e-06
0.000133234
-1.29993e-06
0.000133887
-1.26376e-06
0.000134519
-1.22428e-06
0.000135128
-1.18116e-06
0.000135714
-1.13402e-06
0.000136273
-1.08241e-06
0.000136802
-1.0258e-06
0.0001373
-9.63529e-07
0.000137762
-8.94849e-07
0.000138185
-8.18826e-07
0.000138565
-7.34335e-07
0.000138896
-6.39993e-07
0.000139173
-5.34092e-07
0.000139389
-4.14495e-07
0.000139535
-2.78506e-07
0.000139602
-1.22684e-07
0.000139578
5.74224e-08
0.000139447
2.67748e-07
0.00013919
5.16288e-07
0.000138785
8.13938e-07
0.0001382
1.17584e-06
0.000137394
1.62344e-06
0.000136315
2.1878e-06
0.00013489
2.91466e-06
0.00013302
3.87265e-06
0.000130574
5.16571e-06
0.000127375
6.9507e-06
0.000123211
9.45915e-06
0.000117887
1.30237e-05
0.000111535
1.80291e-05
2.42162e-05
0.000106546
0.000106665
-2.58379e-07
0.000106833
-4.7716e-07
0.00010707
-6.67903e-07
0.000107366
-8.34607e-07
0.000107715
-9.83051e-07
0.000108112
-1.11662e-06
0.000108551
-1.23762e-06
0.00010903
-1.34789e-06
0.000109545
-1.44888e-06
0.000110093
-1.5417e-06
0.000110672
-1.62728e-06
0.000111278
-1.70637e-06
0.000111911
-1.7796e-06
0.000112567
-1.84747e-06
0.000113247
-1.91043e-06
0.000113946
-1.96883e-06
0.000114665
-2.02296e-06
0.000115402
-2.07309e-06
0.000116156
-2.11941e-06
0.000116924
-2.1621e-06
0.000117706
-2.20132e-06
0.000118501
-2.23716e-06
0.000119308
-2.26975e-06
0.000120125
-2.29915e-06
0.000120951
-2.32545e-06
0.000121786
-2.34871e-06
0.000122627
-2.36899e-06
0.000123475
-2.38634e-06
0.000124327
-2.4008e-06
0.000125184
-2.41242e-06
0.000126044
-2.42124e-06
0.000126906
-2.4273e-06
0.000127769
-2.43063e-06
0.000128632
-2.43127e-06
0.000129494
-2.42924e-06
0.000130354
-2.42455e-06
0.000131212
-2.41723e-06
0.000132066
-2.40726e-06
0.000132915
-2.39465e-06
0.000133759
-2.37937e-06
0.000134596
-2.36139e-06
0.000135426
-2.34066e-06
0.000136248
-2.3171e-06
0.000137059
-2.29064e-06
0.000137861
-2.26116e-06
0.00013865
-2.22852e-06
0.000139427
-2.19257e-06
0.000140189
-2.15312e-06
0.000140936
-2.10993e-06
0.000141667
-2.06276e-06
0.000142379
-2.01127e-06
0.00014307
-1.95513e-06
0.000143741
-1.8939e-06
0.000144387
-1.82708e-06
0.000145008
-1.7541e-06
0.0001456
-1.67428e-06
0.000146161
-1.5868e-06
0.000146689
-1.4907e-06
0.00014718
-1.38485e-06
0.000147629
-1.26785e-06
0.000148033
-1.13805e-06
0.000148387
-9.9339e-07
0.000148685
-8.31373e-07
0.000148919
-6.48883e-07
0.000149083
-4.42021e-07
0.000149167
-2.05853e-07
0.000149159
6.59088e-08
0.000149045
3.81481e-07
0.00014881
7.51734e-07
0.000148433
1.19118e-06
0.00014789
1.71944e-06
0.000147151
2.36335e-06
0.000146179
3.16004e-06
0.000144932
4.16133e-06
0.000143366
5.4396e-06
0.000141437
7.09479e-06
0.000139128
9.25992e-06
0.000136491
1.20968e-05
0.000133755
1.57596e-05
0.000131554
2.02307e-05
2.47717e-05
0.000130998
0.000114133
-3.50803e-07
0.00011431
-6.54748e-07
0.00011456
-9.18075e-07
0.000114874
-1.14847e-06
0.000115245
-1.35353e-06
0.000115667
-1.53796e-06
0.000116134
-1.705e-06
0.000116644
-1.85719e-06
0.000117192
-1.99652e-06
0.000117775
-2.12456e-06
0.000118391
-2.24258e-06
0.000119037
-2.35162e-06
0.00011971
-2.45255e-06
0.000120409
-2.54608e-06
0.000121132
-2.6328e-06
0.000121877
-2.71321e-06
0.000122643
-2.78774e-06
0.000123427
-2.85671e-06
0.000124229
-2.92043e-06
0.000125046
-2.97913e-06
0.000125879
-3.03301e-06
0.000126725
-3.08224e-06
0.000127582
-3.12695e-06
0.000128451
-3.16728e-06
0.00012933
-3.20331e-06
0.000130217
-3.23513e-06
0.000131112
-3.26284e-06
0.000132013
-3.28649e-06
0.000132919
-3.30615e-06
0.000133829
-3.32188e-06
0.000134742
-3.33375e-06
0.000135658
-3.3418e-06
0.000136574
-3.34608e-06
0.00013749
-3.34664e-06
0.000138405
-3.34351e-06
0.000139318
-3.33672e-06
0.000140228
-3.32628e-06
0.000141134
-3.31221e-06
0.000142034
-3.29448e-06
0.000142929
-3.27307e-06
0.000143816
-3.24794e-06
0.000144695
-3.21901e-06
0.000145565
-3.1862e-06
0.000146424
-3.14939e-06
0.000147272
-3.10843e-06
0.000148107
-3.06313e-06
0.000148929
-3.01329e-06
0.000149735
-2.95865e-06
0.000150524
-2.8989e-06
0.000151296
-2.83369e-06
0.000152048
-2.76261e-06
0.000152779
-2.68516e-06
0.000153486
-2.6008e-06
0.000154168
-2.50884e-06
0.000154823
-2.40854e-06
0.000155449
-2.29898e-06
0.000156041
-2.17909e-06
0.000156599
-2.04762e-06
0.000157118
-1.90307e-06
0.000157594
-1.74365e-06
0.000158023
-1.5672e-06
0.000158402
-1.3711e-06
0.000158723
-1.15217e-06
0.000158981
-9.06501e-07
0.000159169
-6.2923e-07
0.000159277
-3.14312e-07
0.000159298
4.58203e-08
0.000159219
4.60837e-07
0.000159028
9.43094e-07
0.000158711
1.50874e-06
0.000158252
2.17878e-06
0.000157635
2.98062e-06
0.000156845
3.95013e-06
0.000155873
5.13395e-06
0.000154721
6.5916e-06
0.00015342
8.39614e-06
0.000152051
1.06295e-05
0.000150784
1.33644e-05
0.000149929
1.66146e-05
0.000149946
2.02142e-05
2.35737e-05
0.000151144
0.000122123
-4.46118e-07
0.000122309
-8.41055e-07
0.000122573
-1.18177e-06
0.000122905
-1.48031e-06
0.000123298
-1.74594e-06
0.000123745
-1.98474e-06
0.000124241
-2.20096e-06
0.000124782
-2.39789e-06
0.000125364
-2.57813e-06
0.000125984
-2.74371e-06
0.000126638
-2.89627e-06
0.000127324
-3.03719e-06
0.00012804
-3.16758e-06
0.000128782
-3.28836e-06
0.000129551
-3.4003e-06
0.000130342
-3.50406e-06
0.000131155
-3.60018e-06
0.000131988
-3.68909e-06
0.00013284
-3.77118e-06
0.000133708
-3.84676e-06
0.000134592
-3.91608e-06
0.00013549
-3.97937e-06
0.0001364
-4.03681e-06
0.000137323
-4.08855e-06
0.000138255
-4.13472e-06
0.000139196
-4.17544e-06
0.000140145
-4.21081e-06
0.0001411
-4.24092e-06
0.00014206
-4.26586e-06
0.000143025
-4.28571e-06
0.000143993
-4.30055e-06
0.000144962
-4.31045e-06
0.000145932
-4.31546e-06
0.000146902
-4.31565e-06
0.000147871
-4.31106e-06
0.000148837
-4.30173e-06
0.000149799
-4.28768e-06
0.000150756
-4.26892e-06
0.000151708
-4.24545e-06
0.000152653
-4.21722e-06
0.00015359
-4.18418e-06
0.000154518
-4.14624e-06
0.000155436
-4.10329e-06
0.000156342
-4.0552e-06
0.000157236
-4.00176e-06
0.000158117
-3.94276e-06
0.000158982
-3.87792e-06
0.000159831
-3.80693e-06
0.000160662
-3.72941e-06
0.000161474
-3.64491e-06
0.000162265
-3.55292e-06
0.000163033
-3.45285e-06
0.000163777
-3.34398e-06
0.000164494
-3.22553e-06
0.000165183
-3.09653e-06
0.00016584
-2.95588e-06
0.000166464
-2.80229e-06
0.000167051
-2.63425e-06
0.000167599
-2.44995e-06
0.000168103
-2.24726e-06
0.00016856
-2.02365e-06
0.000168965
-1.77605e-06
0.000169314
-1.5008e-06
0.000169602
-1.19343e-06
0.000169822
-8.48504e-07
0.000169967
-4.59361e-07
0.000170031
-1.7937e-08
0.000170006
4.86013e-07
0.000169885
1.06464e-06
0.000169661
1.73372e-06
0.000169327
2.51263e-06
0.000168883
3.42534e-06
0.000168332
4.50103e-06
0.000167692
5.77444e-06
0.000166999
7.28512e-06
0.000166321
9.07417e-06
0.000165775
1.1176e-05
0.00016554
1.36e-05
0.00016586
1.62949e-05
0.000166989
1.90862e-05
2.1592e-05
0.000168971
0.000130673
-5.44331e-07
0.000130868
-1.03583e-06
0.000131145
-1.45883e-06
0.000131495
-1.83007e-06
0.00013191
-2.1604e-06
0.000132382
-2.45727e-06
0.000132908
-2.72597e-06
0.000133481
-2.97063e-06
0.000134098
-3.19446e-06
0.000134754
-3.4e-06
0.000135448
-3.58932e-06
0.000136175
-3.76411e-06
0.000136934
-3.92576e-06
0.000137722
-4.07544e-06
0.000138536
-4.2141e-06
0.000139375
-4.34255e-06
0.000140237
-4.46146e-06
0.000141121
-4.5714e-06
0.000142023
-4.67283e-06
0.000142943
-4.76615e-06
0.000143879
-4.85166e-06
0.000144831
-4.92966e-06
0.000145795
-5.00036e-06
0.000146771
-5.06396e-06
0.000147758
-5.12062e-06
0.000148754
-5.17049e-06
0.000149758
-5.2137e-06
0.000150768
-5.25037e-06
0.000151784
-5.28059e-06
0.000152803
-5.30448e-06
0.000153826
-5.32212e-06
0.00015485
-5.33362e-06
0.000155874
-5.33904e-06
0.000156898
-5.33846e-06
0.00015792
-5.33195e-06
0.000158939
-5.31954e-06
0.000159953
-5.30127e-06
0.000160962
-5.27716e-06
0.000161965
-5.24719e-06
0.00016296
-5.21133e-06
0.000163946
-5.16951e-06
0.000164922
-5.12164e-06
0.000165887
-5.06758e-06
0.00016684
-5.00716e-06
0.000167779
-4.94016e-06
0.000168703
-4.86632e-06
0.000169612
-4.78531e-06
0.000170502
-4.69675e-06
0.000171374
-4.60021e-06
0.000172225
-4.49515e-06
0.000173053
-4.38098e-06
0.000173858
-4.25699e-06
0.000174637
-4.12236e-06
0.000175388
-3.97616e-06
0.00017611
-3.8173e-06
0.000176799
-3.6445e-06
0.000177454
-3.45629e-06
0.000178071
-3.25096e-06
0.000178648
-3.02648e-06
0.000179182
-2.7805e-06
0.000179669
-2.51021e-06
0.000180106
-2.21232e-06
0.000180488
-1.88292e-06
0.000180813
-1.51732e-06
0.000181075
-1.10994e-06
0.00018127
-6.54113e-07
0.000181394
-1.41897e-07
0.000181445
4.36123e-07
0.000181419
1.09095e-06
0.000181317
1.83597e-06
0.000181143
2.68685e-06
0.000180907
3.66159e-06
0.000180629
4.78018e-06
0.00018034
6.0637e-06
0.000180093
7.53219e-06
0.000179967
9.20054e-06
0.000180072
1.1071e-05
0.000180552
1.31209e-05
0.000181564
1.52831e-05
0.00018323
1.74209e-05
1.9309e-05
0.000185513
0.000139822
-6.45511e-07
0.000140025
-1.23887e-06
0.000140315
-1.74908e-06
0.000140683
-2.19765e-06
0.00014112
-2.59694e-06
0.000141618
-2.95571e-06
0.000142173
-3.28035e-06
0.000142779
-3.57584e-06
0.000143431
-3.84605e-06
0.000144125
-4.09409e-06
0.000144859
-4.32245e-06
0.000145629
-4.53318e-06
0.000146431
-4.72796e-06
0.000147265
-4.90822e-06
0.000148127
-5.07511e-06
0.000149014
-5.22961e-06
0.000149926
-5.37254e-06
0.00015086
-5.50459e-06
0.000151815
-5.62631e-06
0.000152787
-5.73818e-06
0.000153777
-5.8406e-06
0.000154782
-5.9339e-06
0.000155801
-6.01836e-06
0.000156832
-6.09421e-06
0.000157874
-6.16165e-06
0.000158926
-6.22086e-06
0.000159985
-6.272e-06
0.000161051
-6.31521e-06
0.000162122
-6.35063e-06
0.000163197
-6.37837e-06
0.000164274
-6.39857e-06
0.000165353
-6.41131e-06
0.000166431
-6.41672e-06
0.000167509
-6.41487e-06
0.000168583
-6.40584e-06
0.000169655
-6.3897e-06
0.000170721
-6.36649e-06
0.000171781
-6.33623e-06
0.000172833
-6.29892e-06
0.000173877
-6.25451e-06
0.000174912
-6.20295e-06
0.000175935
-6.14411e-06
0.000176946
-6.07786e-06
0.000177944
-6.00399e-06
0.000178927
-5.92227e-06
0.000179894
-5.83238e-06
0.000180843
-5.73397e-06
0.000181774
-5.62661e-06
0.000182684
-5.5098e-06
0.000183573
-5.38294e-06
0.000184438
-5.24536e-06
0.000185278
-5.09627e-06
0.000186091
-4.93477e-06
0.000186875
-4.75981e-06
0.000187629
-4.57021e-06
0.00018835
-4.36457e-06
0.000189035
-4.14131e-06
0.000189684
-3.89858e-06
0.000190292
-3.63426e-06
0.000190858
-3.34588e-06
0.000191379
-3.03058e-06
0.000191852
-2.68501e-06
0.000192275
-2.3053e-06
0.000192645
-1.88692e-06
0.00019296
-1.4246e-06
0.000193219
-9.12231e-07
0.00019342
-3.42773e-07
0.000193565
2.91726e-07
0.000193657
9.99982e-07
0.000193701
1.79192e-06
0.00019371
2.6784e-06
0.000193701
3.6707e-06
0.000193702
4.77969e-06
0.000193752
6.01449e-06
0.000193904
7.38026e-06
0.00019423
8.87484e-06
0.000194818
1.04839e-05
0.000195765
1.21743e-05
0.000197163
1.3886e-05
0.000199059
1.55253e-05
1.69656e-05
0.000201402
0.000149611
-7.49781e-07
0.000149822
-1.45004e-06
0.000150125
-2.0524e-06
0.000150511
-2.58291e-06
0.00015097
-3.05548e-06
0.000151494
-3.48009e-06
0.000152079
-3.86424e-06
0.000152717
-4.21377e-06
0.000153405
-4.53328e-06
0.000154138
-4.82643e-06
0.000154912
-5.09618e-06
0.000155724
-5.34497e-06
0.000156572
-5.5748e-06
0.000157452
-5.78734e-06
0.000158361
-5.98399e-06
0.000159298
-6.16591e-06
0.000160261
-6.33407e-06
0.000161246
-6.48927e-06
0.000162253
-6.63221e-06
0.000163279
-6.76344e-06
0.000164323
-6.88342e-06
0.000165383
-6.99257e-06
0.000166456
-7.09121e-06
0.000167543
-7.17962e-06
0.00016864
-7.25805e-06
0.000169747
-7.32671e-06
0.000170862
-7.38578e-06
0.000171983
-7.43544e-06
0.000173109
-7.47586e-06
0.000174239
-7.50718e-06
0.000175371
-7.52955e-06
0.000176504
-7.54309e-06
0.000177636
-7.54793e-06
0.000178767
-7.54419e-06
0.000179894
-7.53196e-06
0.000181016
-7.51132e-06
0.000182133
-7.48233e-06
0.000183243
-7.44502e-06
0.000184344
-7.39939e-06
0.000185436
-7.34542e-06
0.000186517
-7.28302e-06
0.000187586
-7.2121e-06
0.000188642
-7.1325e-06
0.000189683
-7.04399e-06
0.000190708
-6.94632e-06
0.000191715
-6.83916e-06
0.000192704
-6.72211e-06
0.000193673
-6.59471e-06
0.000194621
-6.45641e-06
0.000195545
-6.30658e-06
0.000196445
-6.14449e-06
0.000197319
-5.96929e-06
0.000198165
-5.78003e-06
0.000198981
-5.57561e-06
0.000199767
-5.35477e-06
0.000200519
-5.11608e-06
0.000201236
-4.85791e-06
0.000201917
-4.5784e-06
0.000202559
-4.27544e-06
0.00020316
-3.94659e-06
0.000203719
-3.58912e-06
0.000204235
-3.19987e-06
0.000204705
-2.77529e-06
0.00020513
-2.31134e-06
0.00020551
-1.80348e-06
0.000205845
-1.24664e-06
0.000206138
-6.35227e-07
0.000206393
3.68086e-08
0.000206618
7.75579e-07
0.000206823
1.5869e-06
0.000207025
2.4769e-06
0.000207246
3.45078e-06
0.000207514
4.51195e-06
0.000207868
5.6609e-06
0.000208355
6.89348e-06
0.000209032
8.19885e-06
0.000209959
9.557e-06
0.000211198
1.0936e-05
0.000212794
1.229e-05
0.000214761
1.35588e-05
1.46732e-05
0.000217054
0.000160085
-8.57264e-07
0.000160305
-1.66924e-06
0.000160621
-2.36862e-06
0.000161024
-2.98567e-06
0.000161505
-3.53588e-06
0.000162055
-4.03033e-06
0.000162669
-4.47761e-06
0.00016334
-4.88448e-06
0.000164064
-5.25626e-06
0.000164835
-5.5972e-06
0.00016565
-5.91075e-06
0.000166506
-6.19977e-06
0.000167398
-6.46658e-06
0.000168325
-6.71314e-06
0.000169283
-6.94109e-06
0.000170269
-7.15179e-06
0.000171283
-7.34636e-06
0.00017232
-7.52576e-06
0.00017338
-7.69079e-06
0.000174459
-7.8421e-06
0.000175557
-7.98026e-06
0.000176671
-8.10574e-06
0.0001778
-8.21891e-06
0.000178941
-8.32012e-06
0.000180094
-8.40965e-06
0.000181256
-8.48776e-06
0.000182426
-8.55467e-06
0.000183602
-8.61058e-06
0.000184783
-8.6557e-06
0.000185968
-8.6902e-06
0.000187153
-8.71425e-06
0.000188339
-8.72801e-06
0.000189524
-8.73163e-06
0.000190706
-8.72526e-06
0.000191884
-8.709e-06
0.000193057
-8.68297e-06
0.000194223
-8.64724e-06
0.000195381
-8.60186e-06
0.00019653
-8.54685e-06
0.000197667
-8.48219e-06
0.000198793
-8.40781e-06
0.000199906
-8.3236e-06
0.000201004
-8.22941e-06
0.000202086
-8.12502e-06
0.000203151
-8.01016e-06
0.000204197
-7.88447e-06
0.000205223
-7.74756e-06
0.000206228
-7.59894e-06
0.000207211
-7.43804e-06
0.000208169
-7.2642e-06
0.000209102
-7.07667e-06
0.000210009
-6.87459e-06
0.000210886
-6.65699e-06
0.000211734
-6.42275e-06
0.000212551
-6.17064e-06
0.000213335
-5.89924e-06
0.000214085
-5.60698e-06
0.000214799
-5.29208e-06
0.000215477
-4.95256e-06
0.000216117
-4.58621e-06
0.000216719
-4.19055e-06
0.000217283
-3.76287e-06
0.000217808
-3.30016e-06
0.000218297
-2.79916e-06
0.00021875
-2.25635e-06
0.000219172
-1.668e-06
0.000219568
-1.03025e-06
0.000219945
-3.39213e-07
0.000220312
4.08709e-07
0.000220684
1.21586e-06
0.000221077
2.08404e-06
0.000221514
3.01375e-06
0.000222024
4.00329e-06
0.000222637
5.04798e-06
0.000223392
6.13912e-06
0.000224328
7.26306e-06
0.000225485
8.40023e-06
0.000226897
9.52457e-06
0.000228584
1.06037e-05
0.000230543
1.16006e-05
1.24776e-05
0.000232739
0.000171294
-9.68086e-07
0.000171521
-1.89636e-06
0.00017185
-2.69759e-06
0.00017227
-3.40571e-06
0.000172773
-4.03787e-06
0.000173349
-4.60618e-06
0.000173992
-5.12027e-06
0.000174696
-5.58781e-06
0.000175455
-6.01487e-06
0.000176265
-6.40632e-06
0.000177121
-6.76612e-06
0.000178019
-7.09755e-06
0.000178957
-7.40329e-06
0.00017993
-7.68561e-06
0.000180936
-7.94638e-06
0.000181972
-8.18718e-06
0.000183036
-8.40932e-06
0.000184125
-8.6139e-06
0.000185237
-8.80185e-06
0.00018637
-8.97393e-06
0.000187522
-9.1308e-06
0.00018869
-9.27299e-06
0.000189873
-9.40097e-06
0.000191069
-9.51511e-06
0.000192277
-9.61577e-06
0.000193493
-9.70323e-06
0.000194718
-9.77777e-06
0.000195948
-9.83962e-06
0.000197182
-9.88902e-06
0.00019842
-9.92618e-06
0.000199658
-9.9513e-06
0.000200896
-9.96458e-06
0.000202131
-9.9662e-06
0.000203364
-9.95633e-06
0.000204591
-9.93512e-06
0.000205812
-9.90269e-06
0.000207025
-9.85916e-06
0.000208229
-9.80459e-06
0.000209422
-9.73902e-06
0.000210603
-9.66246e-06
0.000211771
-9.57485e-06
0.000212925
-9.4761e-06
0.000214063
-9.36606e-06
0.000215183
-9.24451e-06
0.000216285
-9.1112e-06
0.000217368
-8.96578e-06
0.000218429
-8.80785e-06
0.000219468
-8.63692e-06
0.000220483
-8.45243e-06
0.000221474
-8.25372e-06
0.000222438
-8.04007e-06
0.000223375
-7.81064e-06
0.000224283
-7.56447e-06
0.000225162
-7.30052e-06
0.00022601
-7.01762e-06
0.000226826
-6.71445e-06
0.000227609
-6.38959e-06
0.000228359
-6.04146e-06
0.000229076
-5.66833e-06
0.000229759
-5.26833e-06
0.000230408
-4.83945e-06
0.000231026
-4.37953e-06
0.000231613
-3.88631e-06
0.000232172
-3.35748e-06
0.000232707
-2.79067e-06
0.000233223
-2.18363e-06
0.000233728
-1.53427e-06
0.00023423
-8.40788e-07
0.000234741
-1.01732e-07
0.000235274
6.8297e-07
0.000235847
1.51152e-06
0.00023648
2.38134e-06
0.000237196
3.28783e-06
0.000238021
4.22391e-06
0.000238981
5.17966e-06
0.000240103
6.14192e-06
0.000241409
7.09427e-06
0.000242917
8.01723e-06
0.000244632
8.8891e-06
0.000246546
9.68752e-06
1.03922e-05
0.000248631
0.000183287
-1.08233e-06
0.000183522
-2.13129e-06
0.000183863
-3.03909e-06
0.000184301
-3.84274e-06
0.000184824
-4.5611e-06
0.000185426
-5.20724e-06
0.000186098
-5.7918e-06
0.000186834
-6.32334e-06
0.000187628
-6.80871e-06
0.000188476
-7.25339e-06
0.000189372
-7.66188e-06
0.000190313
-8.03789e-06
0.000191295
-8.38451e-06
0.000192315
-8.70428e-06
0.000193369
-8.99937e-06
0.000194454
-9.27157e-06
0.000195568
-9.52238e-06
0.000196709
-9.75307e-06
0.000197872
-9.9647e-06
0.000199058
-1.01581e-05
0.000200262
-1.03342e-05
0.000201484
-1.04934e-05
0.00020272
-1.06363e-05
0.00020397
-1.07634e-05
0.000205231
-1.08751e-05
0.0002065
-1.09717e-05
0.000207777
-1.10536e-05
0.00020906
-1.11209e-05
0.000210346
-1.11741e-05
0.000211634
-1.12132e-05
0.000212923
-1.12387e-05
0.00021421
-1.12507e-05
0.000215495
-1.12494e-05
0.000216775
-1.1235e-05
0.000218049
-1.12078e-05
0.000219315
-1.11679e-05
0.000220573
-1.11153e-05
0.00022182
-1.10504e-05
0.000223055
-1.0973e-05
0.000224277
-1.08833e-05
0.000225484
-1.07811e-05
0.000226676
-1.06665e-05
0.00022785
-1.05393e-05
0.000229006
-1.03994e-05
0.000230143
-1.02464e-05
0.000231258
-1.00801e-05
0.000232351
-9.90011e-06
0.000233422
-9.70593e-06
0.000234467
-9.49705e-06
0.000235487
-9.27287e-06
0.000236481
-9.0327e-06
0.000237447
-8.77577e-06
0.000238385
-8.50124e-06
0.000239293
-8.20815e-06
0.000240172
-7.89547e-06
0.000241021
-7.56208e-06
0.000241839
-7.20678e-06
0.000242626
-6.82828e-06
0.000243384
-6.42521e-06
0.000244113
-5.99616e-06
0.000244814
-5.53965e-06
0.000245489
-5.05423e-06
0.000246142
-4.53846e-06
0.000246776
-3.991e-06
0.000247397
-3.41069e-06
0.000248011
-2.79661e-06
0.000248625
-2.14826e-06
0.000249251
-1.46562e-06
0.000249899
-7.49252e-07
0.000250583
-2.6937e-10
0.000251317
7.78166e-07
0.000252118
1.58098e-06
0.000253004
2.40241e-06
0.000253994
3.23491e-06
0.000255105
4.06917e-06
0.000256353
4.89407e-06
0.000257751
5.69695e-06
0.000259305
6.46406e-06
0.000261013
7.18131e-06
0.000262866
7.83541e-06
8.41561e-06
0.000264843
0.000196119
-1.20005e-06
0.000196362
-2.37387e-06
0.000196716
-3.39282e-06
0.00019717
-4.29633e-06
0.000197714
-5.10503e-06
0.00019834
-5.83292e-06
0.00019904
-6.49154e-06
0.000199808
-7.09038e-06
0.000200637
-7.63704e-06
0.000201522
-8.13764e-06
0.000202458
-8.59723e-06
0.000203441
-9.01997e-06
0.000204467
-9.40934e-06
0.000205532
-9.76823e-06
0.000206632
-1.00991e-05
0.000207766
-1.04039e-05
0.000208929
-1.06844e-05
0.000210119
-1.0942e-05
0.000211333
-1.1178e-05
0.00021257
-1.13933e-05
0.000213826
-1.15889e-05
0.000215099
-1.17653e-05
0.000216387
-1.19232e-05
0.000217688
-1.20632e-05
0.000219
-1.21857e-05
0.000220321
-1.22911e-05
0.000221648
-1.23798e-05
0.000222981
-1.24521e-05
0.000224316
-1.25083e-05
0.000225653
-1.25487e-05
0.000226989
-1.25736e-05
0.000228324
-1.25834e-05
0.000229654
-1.25781e-05
0.000230978
-1.25582e-05
0.000232296
-1.25238e-05
0.000233604
-1.24751e-05
0.000234902
-1.24124e-05
0.000236189
-1.23357e-05
0.000237463
-1.22452e-05
0.000238722
-1.21409e-05
0.000239965
-1.2023e-05
0.000241191
-1.18912e-05
0.000242398
-1.17456e-05
0.000243586
-1.15861e-05
0.000244753
-1.14123e-05
0.000245898
-1.12241e-05
0.00024702
-1.10211e-05
0.000248118
-1.08029e-05
0.000249192
-1.05691e-05
0.000250239
-1.03191e-05
0.00025126
-1.00523e-05
0.000252253
-9.76815e-06
0.000253219
-9.46587e-06
0.000254156
-9.14468e-06
0.000255065
-8.80377e-06
0.000255947
-8.44226e-06
0.0002568
-8.05925e-06
0.000257626
-7.6538e-06
0.000258427
-7.22499e-06
0.000259204
-6.7719e-06
0.000259959
-6.29369e-06
0.000260695
-5.78959e-06
0.000261416
-5.25898e-06
0.000262127
-4.70146e-06
0.000262834
-4.11691e-06
0.000263544
-3.50557e-06
0.000264265
-2.86816e-06
0.000265006
-2.20596e-06
0.000265778
-1.52088e-06
0.000266594
-8.1545e-07
0.000267465
-9.26598e-08
0.000268405
6.42404e-07
0.000269425
1.3832e-06
0.000270538
2.12253e-06
0.000271755
2.85258e-06
0.000273085
3.56463e-06
0.000274533
4.24947e-06
0.0002761
4.89775e-06
0.000277781
5.50053e-06
0.000279567
6.05006e-06
6.54077e-06
0.000281443
0.00020985
-1.32122e-06
0.0002101
-2.62386e-06
0.000210466
-3.75833e-06
0.000210936
-4.76591e-06
0.0002115
-5.66893e-06
0.00021215
-6.48233e-06
0.000212878
-7.21853e-06
0.000213676
-7.88787e-06
0.000214538
-8.49871e-06
0.000215459
-9.05785e-06
0.000216434
-9.57087e-06
0.000217457
-1.00424e-05
0.000218525
-1.04764e-05
0.000219634
-1.08759e-05
0.000220779
-1.12439e-05
0.000221959
-1.15824e-05
0.000223169
-1.18936e-05
0.000224407
-1.21789e-05
0.00022567
-1.24398e-05
0.000226956
-1.26773e-05
0.000228261
-1.28926e-05
0.000229583
-1.30863e-05
0.00023092
-1.32592e-05
0.00023227
-1.34118e-05
0.000233631
-1.35448e-05
0.000235
-1.36585e-05
0.000236375
-1.37534e-05
0.000237754
-1.38299e-05
0.000239136
-1.38884e-05
0.000240517
-1.39291e-05
0.000241898
-1.39525e-05
0.000243275
-1.39589e-05
0.000244647
-1.39486e-05
0.000246012
-1.39218e-05
0.000247368
-1.3879e-05
0.000248715
-1.38203e-05
0.00025005
-1.37459e-05
0.000251372
-1.36562e-05
0.000252679
-1.35512e-05
0.000253971
-1.34311e-05
0.000255245
-1.32959e-05
0.000256501
-1.31458e-05
0.000257737
-1.29806e-05
0.000258953
-1.28002e-05
0.000260147
-1.26047e-05
0.000261318
-1.23936e-05
0.000262465
-1.21669e-05
0.000263587
-1.19242e-05
0.000264685
-1.16652e-05
0.000265756
-1.13893e-05
0.000266801
-1.10963e-05
0.00026782
-1.07855e-05
0.000268811
-1.04566e-05
0.000269777
-1.01088e-05
0.000270716
-9.74164e-06
0.000271629
-9.35456e-06
0.000272518
-8.94697e-06
0.000273383
-8.51837e-06
0.000274227
-8.06827e-06
0.000275053
-7.59629e-06
0.000275862
-7.10217e-06
0.000276659
-6.58582e-06
0.000277449
-6.04735e-06
0.000278235
-5.48715e-06
0.000279025
-4.90592e-06
0.000279825
-4.30477e-06
0.000280643
-3.68525e-06
0.000281487
-3.04945e-06
0.000282367
-2.39999e-06
0.000283293
-1.74007e-06
0.000284274
-1.07336e-06
0.000285321
-4.03678e-07
0.000286441
2.63785e-07
0.000287641
9.22725e-07
0.000288928
1.56636e-06
0.000290306
2.18804e-06
0.000291774
2.7814e-06
0.000293333
3.34019e-06
0.000294975
3.85888e-06
0.000296693
4.33304e-06
4.75998e-06
0.000298474
0.000224543
-1.44573e-06
0.0002248
-2.88091e-06
0.000225177
-4.13502e-06
0.000225662
-5.25065e-06
0.000226245
-6.2518e-06
0.000226918
-7.1543e-06
0.000227671
-7.97141e-06
0.000228498
-8.7143e-06
0.000229392
-9.39211e-06
0.000230348
-1.00123e-05
0.000231358
-1.05809e-05
0.00023242
-1.11032e-05
0.000233528
-1.15834e-05
0.000234679
-1.20251e-05
0.000235867
-1.24314e-05
0.000237091
-1.28047e-05
0.000238346
-1.31473e-05
0.000239629
-1.34609e-05
0.000240938
-1.37471e-05
0.000242269
-1.40071e-05
0.00024362
-1.42421e-05
0.000244988
-1.4453e-05
0.000246371
-1.46406e-05
0.000247766
-1.48056e-05
0.000249171
-1.49485e-05
0.000250584
-1.50699e-05
0.000252003
-1.51703e-05
0.000253424
-1.52501e-05
0.000254847
-1.53099e-05
0.00025627
-1.53499e-05
0.00025769
-1.53706e-05
0.000259105
-1.53725e-05
0.000260514
-1.53558e-05
0.000261914
-1.53209e-05
0.000263305
-1.52683e-05
0.000264685
-1.51981e-05
0.000266051
-1.51108e-05
0.000267403
-1.50066e-05
0.000268739
-1.48858e-05
0.000270058
-1.47485e-05
0.000271358
-1.45949e-05
0.000272639
-1.4425e-05
0.000273899
-1.42391e-05
0.000275137
-1.4037e-05
0.000276353
-1.38188e-05
0.000277545
-1.35842e-05
0.000278712
-1.33333e-05
0.000279855
-1.30658e-05
0.000280973
-1.27815e-05
0.000282065
-1.24802e-05
0.000283132
-1.21615e-05
0.000284172
-1.18251e-05
0.000285188
-1.14709e-05
0.000286179
-1.10984e-05
0.000287146
-1.07074e-05
0.00028809
-1.02976e-05
0.000289013
-9.86879e-06
0.000289916
-9.42094e-06
0.000290803
-8.95398e-06
0.000291676
-8.46803e-06
0.000292538
-7.96335e-06
0.000293394
-7.44042e-06
0.000294247
-6.89994e-06
0.000295104
-6.3429e-06
0.000295969
-5.77058e-06
0.00029685
-5.18464e-06
0.000297753
-4.5871e-06
0.000298685
-3.98042e-06
0.000299653
-3.36747e-06
0.000300665
-2.75152e-06
0.000301729
-2.1362e-06
0.000302852
-1.52536e-06
0.000304039
-9.2288e-07
0.000305295
-3.32781e-07
0.000306622
2.4014e-07
0.00030802
7.90807e-07
0.000309488
1.31443e-06
0.000311022
1.80665e-06
0.000312618
2.26418e-06
0.000314267
2.6846e-06
3.06675e-06
0.000315961
0.000240264
-1.57341e-06
0.000240527
-3.14455e-06
0.000240915
-4.52207e-06
0.000241414
-5.74946e-06
0.000242015
-6.85225e-06
0.000242708
-7.84721e-06
0.000243486
-8.74835e-06
0.00024434
-9.56765e-06
0.000245263
-1.0315e-05
0.00024625
-1.09985e-05
0.000247295
-1.16248e-05
0.000248393
-1.21997e-05
0.000249538
-1.27276e-05
0.000250727
-1.32128e-05
0.000251955
-1.36584e-05
0.000253219
-1.40673e-05
0.000254515
-1.44419e-05
0.00025584
-1.47843e-05
0.00025719
-1.5096e-05
0.000258563
-1.53786e-05
0.000259956
-1.56333e-05
0.000261365
-1.58611e-05
0.000262789
-1.6063e-05
0.000264225
-1.62397e-05
0.00026567
-1.63919e-05
0.000267122
-1.65202e-05
0.000268579
-1.66251e-05
0.000270037
-1.67073e-05
0.000271496
-1.67673e-05
0.000272954
-1.68054e-05
0.000274407
-1.68222e-05
0.000275854
-1.68182e-05
0.000277294
-1.67937e-05
0.000278724
-1.67494e-05
0.000280143
-1.66855e-05
0.000281549
-1.66025e-05
0.000282941
-1.65008e-05
0.000284316
-1.63807e-05
0.000285675
-1.62426e-05
0.000287015
-1.60868e-05
0.000288335
-1.59135e-05
0.000289634
-1.57229e-05
0.000290912
-1.55152e-05
0.000292167
-1.52905e-05
0.000293399
-1.50489e-05
0.000294606
-1.47904e-05
0.00029579