/*--------------------------------*- C++ -*----------------------------------*\
| =========                 |                                                 |
| \\      /  F ield         | OpenFOAM: The Open Source CFD Toolbox           |
|  \\    /   O peration     | Version:  2106                                  |
|   \\  /    A nd           | Website:  www.openfoam.com                      |
|    \\/     M anipulation  |                                                 |
\*---------------------------------------------------------------------------*/
FoamFile
{
    version     2.0;
    format      ascii;
    arch        "LSB;label=32;scalar=64";
    class       volScalarField;
    location    "3.8";
    object      T;
}
// * * * * * * * * * * * * * * * * * * * * * * * * * * * * * * * * * * * * * //

dimensions      [0 0 0 1 0 0 0];

internalField   nonuniform List<scalar> 
12013
(
300.003
300.008
300.014
300.02
300.026
300.032
300.039
300.046
300.054
300.062
300.07
300.078
300.087
300.097
300.107
300.117
300.128
300.139
300.151
300.163
300.176
300.189
300.203
300.218
300.233
300.249
300.265
300.282
300.3
300.318
300.337
300.356
300.377
300.398
300.419
300.442
300.465
300.489
300.514
300.539
300.566
300.593
300.621
300.65
300.679
300.71
300.741
300.774
300.807
300.842
300.877
300.914
300.951
300.99
301.029
301.07
301.112
301.156
301.2
301.246
301.293
301.342
301.392
301.444
301.497
301.553
301.61
301.669
301.73
301.794
301.86
301.929
302.002
302.078
302.158
302.243
302.335
302.434
302.543
302.666
302.814
300.003
300.008
300.014
300.02
300.026
300.032
300.039
300.046
300.054
300.062
300.07
300.078
300.087
300.097
300.107
300.117
300.128
300.139
300.151
300.163
300.176
300.189
300.203
300.218
300.233
300.249
300.265
300.282
300.3
300.318
300.337
300.356
300.377
300.398
300.419
300.442
300.465
300.489
300.514
300.539
300.565
300.593
300.621
300.649
300.679
300.71
300.741
300.774
300.807
300.842
300.877
300.913
300.951
300.99
301.029
301.07
301.112
301.155
301.2
301.246
301.293
301.341
301.391
301.443
301.497
301.552
301.609
301.668
301.729
301.792
301.858
301.927
301.999
302.075
302.154
302.239
302.328
302.425
302.53
302.645
302.771
300.003
300.008
300.014
300.02
300.026
300.032
300.039
300.046
300.054
300.062
300.07
300.078
300.087
300.097
300.107
300.117
300.128
300.139
300.151
300.163
300.176
300.189
300.203
300.218
300.233
300.249
300.265
300.282
300.299
300.318
300.337
300.356
300.376
300.397
300.419
300.442
300.465
300.489
300.513
300.539
300.565
300.592
300.62
300.649
300.679
300.71
300.741
300.774
300.807
300.841
300.877
300.913
300.95
300.989
301.029
301.069
301.111
301.154
301.199
301.245
301.292
301.34
301.39
301.442
301.495
301.55
301.607
301.665
301.726
301.789
301.855
301.923
301.994
302.068
302.146
302.229
302.316
302.408
302.506
302.609
302.717
300.003
300.008
300.014
300.02
300.026
300.032
300.039
300.046
300.054
300.061
300.07
300.078
300.087
300.097
300.107
300.117
300.128
300.139
300.151
300.163
300.176
300.189
300.203
300.218
300.233
300.249
300.265
300.282
300.299
300.318
300.336
300.356
300.376
300.397
300.419
300.441
300.465
300.489
300.513
300.539
300.565
300.592
300.62
300.649
300.679
300.709
300.741
300.773
300.806
300.841
300.876
300.912
300.95
300.988
301.028
301.068
301.11
301.153
301.197
301.243
301.29
301.338
301.388
301.439
301.492
301.547
301.603
301.661
301.721
301.784
301.849
301.916
301.985
302.058
302.134
302.213
302.296
302.383
302.473
302.566
302.659
300.003
300.008
300.014
300.02
300.026
300.032
300.039
300.046
300.054
300.061
300.07
300.078
300.087
300.097
300.107
300.117
300.128
300.139
300.151
300.163
300.176
300.189
300.203
300.218
300.233
300.248
300.265
300.282
300.299
300.317
300.336
300.356
300.376
300.397
300.419
300.441
300.464
300.488
300.513
300.538
300.565
300.592
300.62
300.648
300.678
300.709
300.74
300.772
300.806
300.84
300.875
300.911
300.949
300.987
301.026
301.067
301.108
301.151
301.195
301.241
301.287
301.335
301.385
301.436
301.488
301.542
301.598
301.655
301.715
301.776
301.84
301.905
301.973
302.044
302.117
302.193
302.271
302.352
302.434
302.517
302.6
300.003
300.008
300.014
300.02
300.026
300.032
300.039
300.046
300.054
300.061
300.07
300.078
300.087
300.097
300.107
300.117
300.128
300.139
300.151
300.163
300.176
300.189
300.203
300.218
300.233
300.248
300.265
300.281
300.299
300.317
300.336
300.356
300.376
300.397
300.418
300.441
300.464
300.488
300.512
300.538
300.564
300.591
300.619
300.648
300.677
300.708
300.739
300.771
300.805
300.839
300.874
300.91
300.947
300.985
301.024
301.065
301.106
301.149
301.193
301.238
301.284
301.332
301.381
301.431
301.483
301.536
301.591
301.648
301.706
301.766
301.828
301.892
301.958
302.026
302.095
302.167
302.241
302.315
302.391
302.466
302.541
300.003
300.008
300.014
300.02
300.026
300.032
300.039
300.046
300.054
300.061
300.07
300.078
300.087
300.097
300.106
300.117
300.128
300.139
300.151
300.163
300.176
300.189
300.203
300.217
300.232
300.248
300.264
300.281
300.299
300.317
300.336
300.355
300.376
300.396
300.418
300.44
300.463
300.487
300.512
300.537
300.563
300.59
300.618
300.647
300.676
300.707
300.738
300.77
300.803
300.837
300.872
300.908
300.945
300.983
301.022
301.062
301.103
301.145
301.189
301.234
301.279
301.326
301.375
301.425
301.476
301.528
301.582
301.638
301.695
301.753
301.813
301.875
301.938
302.003
302.07
302.137
302.206
302.275
302.344
302.413
302.48
300.003
300.008
300.014
300.02
300.026
300.032
300.039
300.046
300.054
300.061
300.07
300.078
300.087
300.097
300.106
300.117
300.127
300.139
300.15
300.163
300.175
300.189
300.203
300.217
300.232
300.248
300.264
300.281
300.298
300.317
300.335
300.355
300.375
300.396
300.417
300.44
300.463
300.487
300.511
300.536
300.562
300.589
300.617
300.646
300.675
300.705
300.736
300.768
300.801
300.835
300.87
300.906
300.942
300.98
301.019
301.058
301.099
301.141
301.184
301.228
301.274
301.32
301.368
301.417
301.467
301.518
301.571
301.625
301.681
301.737
301.795
301.855
301.915
301.977
302.04
302.103
302.167
302.231
302.295
302.358
302.42
300.003
300.008
300.014
300.02
300.026
300.032
300.039
300.046
300.054
300.061
300.069
300.078
300.087
300.096
300.106
300.117
300.127
300.139
300.15
300.163
300.175
300.189
300.202
300.217
300.232
300.248
300.264
300.281
300.298
300.316
300.335
300.354
300.374
300.395
300.417
300.439
300.462
300.486
300.51
300.535
300.561
300.588
300.616
300.644
300.673
300.703
300.734
300.766
300.799
300.832
300.867
300.902
300.939
300.976
301.015
301.054
301.094
301.136
301.178
301.222
301.266
301.312
301.359
301.407
301.456
301.506
301.558
301.61
301.664
301.719
301.774
301.831
301.889
301.947
302.006
302.066
302.125
302.185
302.244
302.302
302.359
300.003
300.008
300.014
300.02
300.026
300.032
300.039
300.046
300.053
300.061
300.069
300.078
300.087
300.096
300.106
300.116
300.127
300.138
300.15
300.162
300.175
300.188
300.202
300.217
300.232
300.247
300.263
300.28
300.298
300.316
300.334
300.354
300.374
300.394
300.416
300.438
300.461
300.485
300.509
300.534
300.56
300.587
300.614
300.642
300.671
300.701
300.732
300.764
300.796
300.829
300.864
300.899
300.935
300.972
301.01
301.049
301.088
301.129
301.171
301.214
301.258
301.302
301.348
301.395
301.443
301.492
301.542
301.592
301.644
301.697
301.75
301.804
301.859
301.914
301.97
302.025
302.081
302.136
302.19
302.244
302.297
300.003
300.008
300.014
300.02
300.026
300.032
300.039
300.046
300.053
300.061
300.069
300.078
300.087
300.096
300.106
300.116
300.127
300.138
300.15
300.162
300.175
300.188
300.202
300.216
300.231
300.247
300.263
300.28
300.297
300.315
300.334
300.353
300.373
300.393
300.415
300.437
300.46
300.483
300.507
300.532
300.558
300.585
300.612
300.64
300.669
300.698
300.729
300.76
300.792
300.825
300.859
300.894
300.93
300.966
301.004
301.042
301.081
301.121
301.162
301.204
301.247
301.291
301.336
301.381
301.428
301.475
301.523
301.572
301.622
301.672
301.723
301.774
301.826
301.878
301.93
301.982
302.034
302.085
302.136
302.185
302.234
300.003
300.008
300.014
300.019
300.026
300.032
300.039
300.046
300.053
300.061
300.069
300.078
300.087
300.096
300.106
300.116
300.127
300.138
300.15
300.162
300.174
300.188
300.201
300.216
300.231
300.246
300.262
300.279
300.296
300.314
300.333
300.352
300.372
300.392
300.414
300.435
300.458
300.481
300.506
300.53
300.556
300.582
300.609
300.637
300.666
300.695
300.725
300.756
300.788
300.821
300.854
300.889
300.924
300.96
300.996
301.034
301.073
301.112
301.152
301.193
301.235
301.277
301.321
301.365
301.41
301.456
301.502
301.549
301.596
301.644
301.693
301.741
301.79
301.839
301.888
301.936
301.985
302.032
302.079
302.126
302.171
300.003
300.008
300.014
300.019
300.026
300.032
300.039
300.046
300.053
300.061
300.069
300.078
300.086
300.096
300.105
300.116
300.126
300.137
300.149
300.161
300.174
300.187
300.201
300.215
300.23
300.245
300.261
300.278
300.295
300.313
300.332
300.351
300.37
300.391
300.412
300.434
300.456
300.479
300.503
300.528
300.553
300.579
300.606
300.634
300.662
300.691
300.721
300.752
300.783
300.815
300.848
300.882
300.917
300.952
300.988
301.025
301.062
301.101
301.14
301.18
301.221
301.262
301.304
301.347
301.39
301.434
301.478
301.523
301.568
301.614
301.659
301.705
301.751
301.797
301.843
301.888
301.933
301.978
302.022
302.065
302.107
300.003
300.008
300.014
300.019
300.026
300.032
300.039
300.046
300.053
300.061
300.069
300.077
300.086
300.095
300.105
300.115
300.126
300.137
300.149
300.161
300.173
300.186
300.2
300.214
300.229
300.244
300.26
300.277
300.294
300.312
300.33
300.349
300.369
300.389
300.41
300.432
300.454
300.477
300.501
300.525
300.55
300.576
300.603
300.63
300.658
300.687
300.716
300.746
300.777
300.809
300.841
300.874
300.908
300.943
300.978
301.014
301.051
301.088
301.126
301.165
301.204
301.244
301.285
301.326
301.367
301.409
301.452
301.494
301.537
301.58
301.624
301.667
301.71
301.753
301.796
301.839
301.881
301.922
301.963
302.003
302.043
300.003
300.008
300.014
300.019
300.025
300.032
300.039
300.046
300.053
300.061
300.069
300.077
300.086
300.095
300.105
300.115
300.126
300.137
300.148
300.16
300.173
300.186
300.199
300.214
300.228
300.243
300.259
300.276
300.293
300.31
300.329
300.347
300.367
300.387
300.408
300.429
300.451
300.474
300.498
300.522
300.547
300.572
300.598
300.625
300.653
300.681
300.71
300.74
300.77
300.801
300.833
300.865
300.898
300.932
300.967
301.002
301.037
301.074
301.111
301.148
301.186
301.224
301.263
301.303
301.342
301.382
301.423
301.463
301.504
301.545
301.585
301.626
301.667
301.707
301.747
301.787
301.826
301.865
301.903
301.94
301.977
300.003
300.008
300.013
300.019
300.025
300.032
300.038
300.045
300.053
300.06
300.068
300.077
300.086
300.095
300.104
300.114
300.125
300.136
300.148
300.159
300.172
300.185
300.198
300.212
300.227
300.242
300.258
300.274
300.291
300.309
300.327
300.345
300.365
300.385
300.405
300.426
300.448
300.471
300.494
300.518
300.542
300.567
300.593
300.62
300.647
300.675
300.703
300.732
300.762
300.792
300.823
300.855
300.887
300.92
300.954
300.988
301.022
301.057
301.093
301.129
301.165
301.202
301.24
301.277
301.315
301.353
301.391
301.43
301.468
301.507
301.545
301.583
301.621
301.659
301.696
301.733
301.77
301.806
301.842
301.877
301.911
300.003
300.008
300.013
300.019
300.025
300.032
300.038
300.045
300.052
300.06
300.068
300.076
300.085
300.094
300.104
300.114
300.124
300.135
300.147
300.159
300.171
300.184
300.197
300.211
300.226
300.241
300.256
300.273
300.289
300.307
300.325
300.343
300.362
300.382
300.402
300.423
300.445
300.467
300.49
300.513
300.537
300.562
300.587
300.613
300.64
300.667
300.695
300.724
300.753
300.782
300.812
300.843
300.875
300.906
300.939
300.972
301.005
301.039
301.073
301.108
301.143
301.178
301.213
301.249
301.285
301.321
301.358
301.394
301.43
301.466
301.502
301.538
301.574
301.609
301.644
301.679
301.713
301.747
301.78
301.813
301.845
300.003
300.008
300.013
300.019
300.025
300.031
300.038
300.045
300.052
300.06
300.068
300.076
300.085
300.094
300.103
300.113
300.124
300.135
300.146
300.158
300.17
300.183
300.196
300.21
300.224
300.239
300.255
300.271
300.287
300.304
300.322
300.34
300.359
300.379
300.399
300.419
300.441
300.462
300.485
300.508
300.532
300.556
300.581
300.606
300.632
300.659
300.686
300.714
300.742
300.771
300.8
300.83
300.86
300.891
300.922
300.954
300.986
301.019
301.051
301.084
301.118
301.151
301.185
301.219
301.253
301.287
301.321
301.356
301.39
301.424
301.457
301.491
301.524
301.557
301.59
301.623
301.654
301.686
301.717
301.748
301.777
300.003
300.008
300.013
300.019
300.025
300.031
300.038
300.045
300.052
300.059
300.067
300.076
300.084
300.093
300.103
300.113
300.123
300.134
300.145
300.157
300.169
300.181
300.195
300.208
300.222
300.237
300.252
300.268
300.285
300.302
300.319
300.337
300.356
300.375
300.394
300.415
300.436
300.457
300.479
300.502
300.525
300.549
300.573
300.598
300.623
300.649
300.675
300.702
300.73
300.758
300.786
300.815
300.844
300.874
300.904
300.934
300.965
300.996
301.027
301.059
301.091
301.123
301.155
301.187
301.219
301.251
301.283
301.315
301.347
301.379
301.411
301.442
301.474
301.504
301.535
301.565
301.595
301.624
301.653
301.682
301.71
300.003
300.008
300.013
300.019
300.025
300.031
300.038
300.044
300.051
300.059
300.067
300.075
300.084
300.092
300.102
300.112
300.122
300.133
300.144
300.155
300.167
300.18
300.193
300.206
300.22
300.235
300.25
300.266
300.282
300.298
300.316
300.333
300.352
300.37
300.39
300.41
300.43
300.451
300.473
300.495
300.517
300.541
300.564
300.588
300.613
300.638
300.664
300.69
300.716
300.743
300.771
300.798
300.827
300.855
300.884
300.913
300.942
300.972
301.002
301.032
301.062
301.092
301.122
301.153
301.183
301.213
301.243
301.273
301.303
301.333
301.363
301.392
301.421
301.45
301.479
301.507
301.535
301.562
301.589
301.616
301.642
300.003
300.008
300.013
300.019
300.025
300.031
300.037
300.044
300.051
300.058
300.066
300.074
300.083
300.092
300.101
300.111
300.121
300.131
300.142
300.154
300.166
300.178
300.191
300.204
300.218
300.232
300.247
300.262
300.278
300.295
300.312
300.329
300.347
300.365
300.384
300.404
300.424
300.444
300.465
300.487
300.509
300.531
300.554
300.578
300.602
300.626
300.651
300.676
300.701
300.727
300.754
300.78
300.807
300.834
300.862
300.89
300.918
300.946
300.974
301.002
301.031
301.059
301.088
301.116
301.145
301.173
301.202
301.23
301.258
301.286
301.313
301.341
301.368
301.395
301.421
301.448
301.473
301.499
301.524
301.549
301.573
300.002
300.008
300.013
300.019
300.024
300.03
300.037
300.044
300.051
300.058
300.066
300.074
300.082
300.091
300.1
300.109
300.119
300.13
300.141
300.152
300.164
300.176
300.189
300.202
300.215
300.229
300.244
300.259
300.274
300.291
300.307
300.324
300.342
300.36
300.378
300.397
300.417
300.437
300.457
300.478
300.499
300.521
300.543
300.566
300.589
300.612
300.636
300.66
300.685
300.71
300.735
300.76
300.786
300.812
300.838
300.864
300.891
300.918
300.944
300.971
300.998
301.025
301.051
301.078
301.105
301.132
301.158
301.184
301.211
301.237
301.262
301.288
301.313
301.338
301.363
301.387
301.412
301.435
301.459
301.482
301.504
300.002
300.008
300.013
300.018
300.024
300.03
300.036
300.043
300.05
300.057
300.065
300.073
300.081
300.09
300.099
300.108
300.118
300.128
300.139
300.15
300.161
300.173
300.186
300.199
300.212
300.226
300.24
300.255
300.27
300.286
300.302
300.319
300.336
300.353
300.371
300.39
300.409
300.428
300.448
300.468
300.489
300.51
300.531
300.553
300.575
300.598
300.62
300.644
300.667
300.691
300.715
300.739
300.763
300.788
300.813
300.838
300.863
300.888
300.913
300.938
300.963
300.988
301.014
301.039
301.064
301.088
301.113
301.138
301.162
301.186
301.211
301.234
301.258
301.281
301.304
301.327
301.349
301.371
301.393
301.414
301.436
300.002
300.007
300.013
300.018
300.024
300.03
300.036
300.042
300.049
300.056
300.064
300.072
300.08
300.088
300.097
300.107
300.116
300.126
300.137
300.148
300.159
300.171
300.183
300.196
300.209
300.222
300.236
300.25
300.265
300.281
300.296
300.312
300.329
300.346
300.363
300.381
300.4
300.418
300.438
300.457
300.477
300.497
300.518
300.539
300.56
300.581
300.603
300.625
300.648
300.67
300.693
300.716
300.739
300.762
300.786
300.809
300.833
300.856
300.88
300.903
300.927
300.951
300.974
300.998
301.021
301.044
301.067
301.09
301.113
301.135
301.158
301.18
301.202
301.223
301.245
301.266
301.286
301.307
301.327
301.347
301.367
300.002
300.007
300.012
300.018
300.023
300.029
300.035
300.042
300.049
300.056
300.063
300.071
300.079
300.087
300.096
300.105
300.114
300.124
300.134
300.145
300.156
300.168
300.18
300.192
300.205
300.218
300.231
300.245
300.26
300.275
300.29
300.305
300.322
300.338
300.355
300.372
300.39
300.408
300.426
300.445
300.464
300.483
300.503
300.523
300.543
300.564
300.584
300.605
300.627
300.648
300.67
300.691
300.713
300.735
300.757
300.779
300.801
300.823
300.845
300.867
300.889
300.911
300.933
300.955
300.977
300.999
301.02
301.041
301.062
301.083
301.104
301.124
301.145
301.165
301.185
301.204
301.223
301.242
301.261
301.28
301.298
300.002
300.007
300.012
300.018
300.023
300.029
300.035
300.041
300.048
300.055
300.062
300.069
300.077
300.085
300.094
300.103
300.112
300.122
300.132
300.142
300.153
300.164
300.176
300.188
300.2
300.213
300.226
300.24
300.254
300.268
300.283
300.298
300.313
300.329
300.345
300.362
300.379
300.396
300.414
300.432
300.45
300.468
300.487
300.506
300.525
300.545
300.564
300.584
300.604
300.624
300.645
300.665
300.686
300.706
300.727
300.748
300.768
300.789
300.81
300.83
300.851
300.871
300.892
300.912
300.932
300.952
300.972
300.992
301.011
301.031
301.05
301.069
301.088
301.106
301.124
301.143
301.16
301.178
301.195
301.212
301.229
300.002
300.007
300.012
300.017
300.023
300.028
300.034
300.04
300.047
300.054
300.061
300.068
300.076
300.084
300.092
300.101
300.11
300.119
300.129
300.139
300.149
300.16
300.172
300.183
300.195
300.208
300.22
300.233
300.247
300.261
300.275
300.289
300.304
300.32
300.335
300.351
300.367
300.384
300.4
300.417
300.435
300.452
300.47
300.488
300.506
300.525
300.543
300.562
300.581
300.6
300.619
300.638
300.657
300.676
300.696
300.715
300.734
300.753
300.773
300.792
300.811
300.83
300.849
300.868
300.886
300.905
300.923
300.942
300.96
300.978
300.995
301.013
301.03
301.047
301.064
301.081
301.097
301.114
301.13
301.145
301.161
300.002
300.007
300.012
300.017
300.022
300.028
300.033
300.039
300.046
300.052
300.059
300.066
300.074
300.082
300.09
300.098
300.107
300.116
300.126
300.135
300.146
300.156
300.167
300.178
300.19
300.202
300.214
300.227
300.24
300.253
300.266
300.28
300.295
300.309
300.324
300.339
300.354
300.37
300.386
300.402
300.419
300.435
300.452
300.469
300.486
300.503
300.521
300.538
300.556
300.574
300.592
300.609
300.627
300.645
300.663
300.681
300.699
300.717
300.735
300.753
300.77
300.788
300.805
300.823
300.84
300.857
300.874
300.891
300.908
300.924
300.941
300.957
300.973
300.989
301.004
301.02
301.035
301.05
301.065
301.079
301.094
300.002
300.007
300.011
300.016
300.022
300.027
300.033
300.038
300.045
300.051
300.058
300.065
300.072
300.08
300.087
300.096
300.104
300.113
300.122
300.132
300.141
300.151
300.162
300.173
300.184
300.195
300.207
300.219
300.232
300.244
300.257
300.27
300.284
300.298
300.312
300.326
300.341
300.356
300.371
300.386
300.402
300.417
300.433
300.449
300.465
300.481
300.497
300.514
300.53
300.547
300.564
300.58
300.597
300.613
300.63
300.647
300.663
300.68
300.696
300.713
300.729
300.746
300.762
300.778
300.794
300.809
300.825
300.841
300.856
300.871
300.886
300.901
300.916
300.93
300.945
300.959
300.973
300.987
301
301.014
301.027
300.002
300.007
300.011
300.016
300.021
300.026
300.032
300.037
300.043
300.05
300.056
300.063
300.07
300.077
300.085
300.093
300.101
300.109
300.118
300.127
300.137
300.146
300.157
300.167
300.177
300.188
300.2
300.211
300.223
300.235
300.247
300.26
300.273
300.286
300.299
300.313
300.327
300.341
300.355
300.369
300.384
300.398
300.413
300.428
300.443
300.458
300.473
300.489
300.504
300.519
300.535
300.55
300.566
300.581
300.596
300.612
300.627
300.642
300.658
300.673
300.688
300.703
300.718
300.732
300.747
300.762
300.776
300.79
300.804
300.818
300.832
300.846
300.859
300.873
300.886
300.899
300.912
300.924
300.937
300.949
300.961
300.002
300.006
300.011
300.015
300.02
300.025
300.031
300.036
300.042
300.048
300.054
300.061
300.068
300.075
300.082
300.09
300.097
300.106
300.114
300.123
300.132
300.141
300.151
300.161
300.171
300.181
300.192
300.203
300.214
300.225
300.237
300.249
300.261
300.273
300.286
300.299
300.312
300.325
300.338
300.351
300.365
300.379
300.392
300.406
300.42
300.434
300.449
300.463
300.477
300.491
300.505
300.52
300.534
300.548
300.562
300.577
300.591
300.605
300.619
300.633
300.647
300.66
300.674
300.687
300.701
300.714
300.727
300.74
300.753
300.766
300.779
300.791
300.804
300.816
300.828
300.84
300.852
300.863
300.875
300.886
300.897
300.002
300.006
300.01
300.015
300.02
300.025
300.03
300.035
300.04
300.046
300.052
300.059
300.065
300.072
300.079
300.086
300.094
300.102
300.11
300.118
300.127
300.135
300.145
300.154
300.164
300.173
300.183
300.194
300.204
300.215
300.226
300.237
300.249
300.26
300.272
300.284
300.296
300.308
300.321
300.333
300.346
300.359
300.372
300.384
300.397
300.41
300.423
300.437
300.45
300.463
300.476
300.489
300.502
300.515
300.528
300.541
300.554
300.567
300.58
300.593
300.606
300.618
300.631
300.643
300.655
300.668
300.68
300.692
300.703
300.715
300.727
300.738
300.749
300.76
300.771
300.782
300.793
300.804
300.814
300.824
300.834
300.002
300.006
300.01
300.014
300.019
300.024
300.029
300.034
300.039
300.045
300.05
300.056
300.063
300.069
300.076
300.083
300.09
300.097
300.105
300.113
300.121
300.129
300.138
300.147
300.156
300.165
300.175
300.185
300.195
300.205
300.215
300.226
300.236
300.247
300.258
300.269
300.28
300.292
300.303
300.315
300.327
300.339
300.35
300.362
300.374
300.386
300.398
300.41
300.422
300.435
300.447
300.459
300.471
300.483
300.495
300.507
300.519
300.53
300.542
300.554
300.565
300.577
300.588
300.6
300.611
300.622
300.633
300.644
300.655
300.665
300.676
300.686
300.696
300.707
300.717
300.726
300.736
300.746
300.755
300.765
300.774
300.002
300.006
300.01
300.014
300.018
300.023
300.027
300.032
300.037
300.043
300.048
300.054
300.06
300.066
300.072
300.079
300.086
300.093
300.1
300.108
300.115
300.123
300.132
300.14
300.148
300.157
300.166
300.175
300.185
300.194
300.204
300.214
300.224
300.234
300.244
300.254
300.265
300.275
300.286
300.297
300.308
300.318
300.329
300.34
300.351
300.362
300.374
300.385
300.396
300.407
300.418
300.429
300.44
300.451
300.462
300.473
300.484
300.494
300.505
300.516
300.526
300.537
300.547
300.558
300.568
300.578
300.588
300.598
300.608
300.617
300.627
300.636
300.646
300.655
300.664
300.673
300.682
300.691
300.699
300.708
300.716
300.002
300.005
300.009
300.013
300.017
300.022
300.026
300.031
300.036
300.041
300.046
300.051
300.057
300.063
300.069
300.075
300.082
300.089
300.095
300.103
300.11
300.117
300.125
300.133
300.141
300.149
300.157
300.166
300.175
300.184
300.193
300.202
300.211
300.22
300.23
300.239
300.249
300.259
300.269
300.279
300.289
300.299
300.309
300.319
300.329
300.339
300.349
300.36
300.37
300.38
300.39
300.4
300.41
300.42
300.43
300.44
300.45
300.46
300.47
300.48
300.489
300.499
300.508
300.518
300.527
300.536
300.545
300.554
300.563
300.572
300.581
300.589
300.598
300.606
300.614
300.622
300.631
300.638
300.646
300.654
300.662
300.002
300.005
300.009
300.013
300.017
300.021
300.025
300.029
300.034
300.039
300.044
300.049
300.054
300.06
300.066
300.072
300.078
300.084
300.091
300.097
300.104
300.111
300.118
300.126
300.133
300.141
300.149
300.157
300.165
300.173
300.182
300.19
300.199
300.208
300.216
300.225
300.234
300.243
300.252
300.262
300.271
300.28
300.289
300.299
300.308
300.317
300.327
300.336
300.345
300.355
300.364
300.373
300.382
300.392
300.401
300.41
300.419
300.428
300.437
300.445
300.454
300.463
300.472
300.48
300.489
300.497
300.505
300.513
300.521
300.529
300.537
300.545
300.553
300.561
300.568
300.576
300.583
300.59
300.597
300.604
300.611
300.002
300.005
300.008
300.012
300.016
300.02
300.024
300.028
300.033
300.037
300.042
300.047
300.052
300.057
300.063
300.068
300.074
300.08
300.086
300.093
300.099
300.106
300.112
300.119
300.126
300.134
300.141
300.148
300.156
300.164
300.172
300.179
300.187
300.196
300.204
300.212
300.22
300.229
300.237
300.246
300.254
300.263
300.271
300.28
300.288
300.297
300.306
300.314
300.323
300.331
300.34
300.348
300.357
300.365
300.373
300.382
300.39
300.398
300.406
300.414
300.422
300.43
300.438
300.446
300.454
300.461
300.469
300.476
300.484
300.491
300.498
300.505
300.512
300.519
300.526
300.533
300.54
300.546
300.553
300.559
300.565
300.002
300.005
300.008
300.012
300.015
300.019
300.023
300.027
300.031
300.036
300.04
300.045
300.05
300.055
300.06
300.065
300.071
300.076
300.082
300.088
300.094
300.1
300.107
300.113
300.12
300.127
300.134
300.141
300.148
300.155
300.162
300.17
300.177
300.185
300.192
300.2
300.208
300.216
300.224
300.231
300.239
300.247
300.255
300.263
300.271
300.279
300.287
300.295
300.303
300.311
300.318
300.326
300.334
300.342
300.35
300.357
300.365
300.372
300.38
300.387
300.395
300.402
300.409
300.416
300.423
300.43
300.437
300.444
300.451
300.458
300.464
300.471
300.477
300.484
300.49
300.496
300.502
300.508
300.514
300.52
300.526
300.002
300.005
300.008
300.011
300.015
300.018
300.022
300.026
300.03
300.034
300.038
300.043
300.048
300.052
300.057
300.062
300.068
300.073
300.079
300.084
300.09
300.096
300.102
300.108
300.115
300.121
300.128
300.134
300.141
300.148
300.155
300.162
300.169
300.176
300.183
300.19
300.198
300.205
300.212
300.22
300.227
300.234
300.242
300.249
300.257
300.264
300.271
300.279
300.286
300.294
300.301
300.308
300.315
300.323
300.33
300.337
300.344
300.351
300.358
300.365
300.372
300.378
300.385
300.392
300.398
300.405
300.411
300.418
300.424
300.43
300.436
300.442
300.448
300.454
300.46
300.466
300.471
300.477
300.482
300.488
300.493
300.001
300.004
300.008
300.011
300.014
300.018
300.021
300.025
300.029
300.033
300.037
300.042
300.046
300.051
300.056
300.06
300.066
300.071
300.076
300.082
300.087
300.093
300.099
300.105
300.111
300.117
300.123
300.129
300.136
300.142
300.149
300.156
300.162
300.169
300.176
300.183
300.19
300.197
300.204
300.211
300.218
300.225
300.232
300.239
300.246
300.253
300.26
300.267
300.274
300.281
300.288
300.295
300.302
300.309
300.315
300.322
300.329
300.335
300.342
300.348
300.355
300.361
300.368
300.374
300.38
300.386
300.392
300.398
300.404
300.41
300.416
300.422
300.427
300.433
300.438
300.444
300.449
300.454
300.459
300.465
300.47
300.001
300.004
300.007
300.011
300.014
300.017
300.021
300.025
300.029
300.032
300.037
300.041
300.045
300.05
300.055
300.059
300.064
300.069
300.075
300.08
300.085
300.091
300.097
300.103
300.108
300.114
300.121
300.127
300.133
300.139
300.146
300.152
300.159
300.166
300.172
300.179
300.186
300.192
300.199
300.206
300.213
300.22
300.227
300.233
300.24
300.247
300.254
300.261
300.267
300.274
300.281
300.288
300.294
300.301
300.307
300.314
300.32
300.327
300.333
300.339
300.346
300.352
300.358
300.364
300.37
300.376
300.382
300.388
300.393
300.399
300.405
300.41
300.416
300.421
300.426
300.432
300.437
300.442
300.447
300.452
300.457
303.009
303.137
303.215
303.287
303.35
303.402
303.436
303.476
303.516
303.553
303.584
303.618
303.653
303.686
303.72
303.753
303.783
303.811
303.84
303.869
303.898
303.927
303.956
303.985
304.013
304.042
304.069
304.096
304.123
304.15
304.176
304.202
304.228
304.253
304.279
304.303
304.328
304.352
304.376
304.4
304.424
304.447
304.471
304.497
304.522
304.546
304.568
304.591
304.616
304.639
304.662
304.683
304.705
304.728
304.751
304.775
304.798
304.821
304.844
304.865
304.884
304.904
304.925
304.946
304.968
304.989
305.01
305.031
305.051
305.071
305.091
305.111
305.13
305.149
305.167
305.186
305.204
305.222
305.239
305.258
305.28
305.298
305.315
305.332
305.347
305.362
305.379
305.397
305.414
305.429
305.442
305.457
305.474
305.488
305.503
305.52
305.534
305.547
305.562
305.575
305.587
305.6
305.611
305.623
305.636
305.65
305.661
305.67
305.681
305.69
305.7
305.711
305.721
305.732
305.741
305.747
305.756
305.764
305.772
305.779
305.784
305.789
305.795
305.8
305.805
305.808
305.811
305.813
305.815
305.816
305.816
305.815
305.813
305.811
305.807
305.802
305.795
305.788
305.779
305.768
305.756
305.743
305.727
305.71
305.691
305.67
305.646
305.62
305.591
305.556
305.515
305.473
305.431
305.383
305.329
305.268
305.202
305.089
304.987
304.857
304.686
302.908
303.021
303.109
303.184
303.249
303.305
303.351
303.394
303.436
303.475
303.511
303.547
303.583
303.618
303.652
303.685
303.717
303.747
303.777
303.808
303.837
303.867
303.897
303.926
303.955
303.983
304.011
304.039
304.067
304.093
304.12
304.147
304.173
304.199
304.224
304.25
304.275
304.299
304.324
304.348
304.372
304.396
304.421
304.446
304.471
304.495
304.518
304.542
304.566
304.589
304.612
304.634
304.657
304.68
304.703
304.727
304.75
304.773
304.796
304.817
304.837
304.858
304.879
304.9
304.922
304.943
304.964
304.985
305.006
305.026
305.046
305.066
305.085
305.104
305.123
305.142
305.16
305.179
305.197
305.216
305.236
305.255
305.272
305.289
305.305
305.32
305.337
305.355
305.371
305.386
305.401
305.416
305.432
305.447
305.463
305.478
305.493
305.507
305.521
305.534
305.547
305.56
305.571
305.584
305.596
305.61
305.621
305.631
305.642
305.651
305.661
305.672
305.682
305.692
305.701
305.709
305.717
305.725
305.733
305.74
305.745
305.751
305.757
305.762
305.766
305.77
305.773
305.775
305.777
305.778
305.778
305.777
305.776
305.773
305.769
305.764
305.757
305.75
305.741
305.73
305.718
305.705
305.69
305.673
305.653
305.632
305.608
305.582
305.552
305.517
305.477
305.434
305.391
305.342
305.287
305.224
305.153
305.044
304.936
304.8
304.613
302.826
302.925
303.011
303.086
303.152
303.21
303.262
303.309
303.353
303.395
303.434
303.472
303.509
303.545
303.581
303.615
303.648
303.68
303.711
303.742
303.773
303.803
303.833
303.863
303.892
303.921
303.95
303.978
304.006
304.034
304.061
304.088
304.114
304.141
304.167
304.192
304.218
304.243
304.268
304.293