/*--------------------------------*- C++ -*----------------------------------*\
| =========                 |                                                 |
| \\      /  F ield         | OpenFOAM: The Open Source CFD Toolbox           |
|  \\    /   O peration     | Version:  2106                                  |
|   \\  /    A nd           | Website:  www.openfoam.com                      |
|    \\/     M anipulation  |                                                 |
\*---------------------------------------------------------------------------*/
FoamFile
{
    version     2.0;
    format      ascii;
    arch        "LSB;label=32;scalar=64";
    class       volVectorField;
    location    "3.8";
    object      U;
}
// * * * * * * * * * * * * * * * * * * * * * * * * * * * * * * * * * * * * * //

dimensions      [0 1 -1 0 0 0 0];

internalField   nonuniform List<vector> 
12013
(
(0.10003 -8.33303e-06 0)
(0.100152 -1.54086e-05 0)
(0.10035 -2.19465e-05 0)
(0.100606 -2.79493e-05 0)
(0.100914 -3.35682e-05 0)
(0.101269 -3.88902e-05 0)
(0.101667 -4.39719e-05 0)
(0.102103 -4.88575e-05 0)
(0.102575 -5.35819e-05 0)
(0.10308 -5.81722e-05 0)
(0.103614 -6.26497e-05 0)
(0.104176 -6.70317e-05 0)
(0.104764 -7.13322e-05 0)
(0.105376 -7.55622e-05 0)
(0.10601 -7.97308e-05 0)
(0.106664 -8.38444e-05 0)
(0.107337 -8.79085e-05 0)
(0.108029 -9.19264e-05 0)
(0.108736 -9.59005e-05 0)
(0.109459 -9.98316e-05 0)
(0.110196 -0.00010372 0)
(0.110946 -0.000107564 0)
(0.111707 -0.000111363 0)
(0.112479 -0.000115114 0)
(0.113261 -0.000118814 0)
(0.114052 -0.000122459 0)
(0.11485 -0.000126046 0)
(0.115655 -0.00012957 0)
(0.116466 -0.000133026 0)
(0.117282 -0.00013641 0)
(0.118101 -0.000139716 0)
(0.118924 -0.000142939 0)
(0.119748 -0.000146072 0)
(0.120574 -0.000149109 0)
(0.121399 -0.000152044 0)
(0.122225 -0.000154867 0)
(0.123048 -0.000157572 0)
(0.12387 -0.000160148 0)
(0.124688 -0.000162585 0)
(0.125502 -0.000164871 0)
(0.126311 -0.000166992 0)
(0.127114 -0.000168933 0)
(0.12791 -0.000170676 0)
(0.128699 -0.000172202 0)
(0.129478 -0.000173489 0)
(0.130248 -0.000174509 0)
(0.131007 -0.000175234 0)
(0.131754 -0.000175629 0)
(0.132488 -0.000175655 0)
(0.133207 -0.000175269 0)
(0.133911 -0.000174418 0)
(0.134597 -0.000173042 0)
(0.135264 -0.000171074 0)
(0.13591 -0.000168431 0)
(0.136533 -0.000165019 0)
(0.137131 -0.000160729 0)
(0.137702 -0.000155427 0)
(0.138243 -0.000148957 0)
(0.13875 -0.000141132 0)
(0.13922 -0.000131723 0)
(0.139649 -0.000120453 0)
(0.140032 -0.00010698 0)
(0.140363 -9.0878e-05 0)
(0.140636 -7.16121e-05 0)
(0.140843 -4.85022e-05 0)
(0.140974 -2.06715e-05 0)
(0.141018 1.30305e-05 0)
(0.140959 5.4169e-05 0)
(0.14078 0.00010489 0)
(0.140457 0.000168177 0)
(0.139959 0.000248291 0)
(0.139245 0.000351495 0)
(0.138257 0.000487252 0)
(0.136915 0.00067032 0)
(0.135105 0.000924467 0)
(0.132652 0.00128925 0)
(0.129292 0.00183278 0)
(0.124587 0.00267926 0)
(0.117816 0.0040931 0)
(0.108007 0.0068409 0)
(0.0967779 0.0144758 0)
(0.100028 -2.54475e-05 0)
(0.100149 -4.7246e-05 0)
(0.100347 -6.73256e-05 0)
(0.100602 -8.57486e-05 0)
(0.100909 -0.000102994 0)
(0.101263 -0.000119327 0)
(0.101661 -0.000134919 0)
(0.102096 -0.00014991 0)
(0.102567 -0.000164405 0)
(0.103071 -0.000178488 0)
(0.103605 -0.000192223 0)
(0.104166 -0.000205665 0)
(0.104753 -0.000218855 0)
(0.105363 -0.00023183 0)
(0.105996 -0.000244614 0)
(0.10665 -0.000257229 0)
(0.107322 -0.000269691 0)
(0.108012 -0.000282011 0)
(0.108718 -0.000294196 0)
(0.10944 -0.000306248 0)
(0.110175 -0.000318168 0)
(0.110924 -0.000329953 0)
(0.111684 -0.000341597 0)
(0.112455 -0.000353094 0)
(0.113235 -0.000364433 0)
(0.114024 -0.000375604 0)
(0.114821 -0.000386594 0)
(0.115624 -0.000397391 0)
(0.116433 -0.00040798 0)
(0.117247 -0.000418346 0)
(0.118065 -0.000428472 0)
(0.118885 -0.000438342 0)
(0.119707 -0.000447936 0)
(0.120531 -0.000457236 0)
(0.121355 -0.000466219 0)
(0.122178 -0.000474862 0)
(0.122999 -0.000483139 0)
(0.123818 -0.000491021 0)
(0.124634 -0.000498475 0)
(0.125446 -0.000505465 0)
(0.126252 -0.00051195 0)
(0.127053 -0.000517882 0)
(0.127846 -0.000523208 0)
(0.128632 -0.000527868 0)
(0.129409 -0.000531791 0)
(0.130176 -0.000534899 0)
(0.130932 -0.000537101 0)
(0.131677 -0.000538293 0)
(0.132408 -0.000538356 0)
(0.133124 -0.000537154 0)
(0.133824 -0.00053453 0)
(0.134508 -0.000530301 0)
(0.135172 -0.000524257 0)
(0.135815 -0.000516151 0)
(0.136436 -0.000505697 0)
(0.137031 -0.000492556 0)
(0.1376 -0.000476329 0)
(0.138138 -0.000456538 0)
(0.138643 -0.000432612 0)
(0.139111 -0.000403861 0)
(0.139539 -0.000369443 0)
(0.139922 -0.000328324 0)
(0.140254 -0.000279218 0)
(0.140528 -0.000220515 0)
(0.140738 -0.000150169 0)
(0.140875 -6.5552e-05 0)
(0.140927 3.67642e-05 0)
(0.14088 0.000161388 0)
(0.140719 0.000314593 0)
(0.140421 0.000505041 0)
(0.139961 0.000744969 0)
(0.139302 0.00105209 0)
(0.138398 0.00145268 0)
(0.137188 0.0019867 0)
(0.135588 0.00271653 0)
(0.133483 0.00374148 0)
(0.130722 0.00522176 0)
(0.127096 0.00741689 0)
(0.122355 0.010748 0)
(0.116522 0.0158102 0)
(0.111652 0.0228188 0)
(0.100025 -4.32691e-05 0)
(0.100146 -8.10519e-05 0)
(0.100341 -0.000115635 0)
(0.100595 -0.000147354 0)
(0.1009 -0.000177038 0)
(0.101253 -0.000205146 0)
(0.101649 -0.000231975 0)
(0.102083 -0.000257765 0)
(0.102552 -0.000282701 0)
(0.103054 -0.000306922 0)
(0.103586 -0.000330545 0)
(0.104146 -0.000353661 0)
(0.104731 -0.000376342 0)
(0.105339 -0.000398649 0)
(0.10597 -0.000420627 0)
(0.106621 -0.000442312 0)
(0.107291 -0.000463733 0)
(0.107979 -0.000484906 0)
(0.108683 -0.000505845 0)
(0.109402 -0.000526553 0)
(0.110135 -0.000547032 0)
(0.11088 -0.000567277 0)
(0.111637 -0.000587278 0)
(0.112405 -0.000607022 0)
(0.113183 -0.000626493 0)
(0.113968 -0.000645672 0)
(0.114762 -0.000664539 0)
(0.115562 -0.00068307 0)
(0.116367 -0.000701241 0)
(0.117177 -0.000719025 0)
(0.117991 -0.000736395 0)
(0.118808 -0.000753321 0)
(0.119626 -0.00076977 0)
(0.120445 -0.000785709 0)
(0.121265 -0.000801101 0)
(0.122083 -0.000815906 0)
(0.1229 -0.000830077 0)
(0.123715 -0.000843566 0)
(0.124526 -0.000856318 0)
(0.125332 -0.000868268 0)
(0.126134 -0.000879347 0)
(0.126929 -0.000889473 0)
(0.127717 -0.000898555 0)
(0.128498 -0.000906488 0)
(0.129269 -0.000913155 0)
(0.130031 -0.000918419 0)
(0.130781 -0.000922126 0)
(0.13152 -0.000924098 0)
(0.132245 -0.000924132 0)
(0.132955 -0.000921996 0)
(0.13365 -0.000917421 0)
(0.134327 -0.000910098 0)
(0.134986 -0.000899668 0)
(0.135623 -0.000885715 0)
(0.136238 -0.000867751 0)
(0.136828 -0.000845205 0)
(0.137391 -0.000817399 0)
(0.137925 -0.000783533 0)
(0.138426 -0.000742646 0)
(0.138891 -0.000693581 0)
(0.139316 -0.000634933 0)
(0.139697 -0.000564981 0)
(0.140029 -0.000481596 0)
(0.140306 -0.000382124 0)
(0.140521 -0.000263211 0)
(0.140666 -0.000120584 0)
(0.140731 5.1277e-05 0)
(0.140705 0.000259676 0)
(0.140573 0.00051441 0)
(0.140319 0.000828786 0)
(0.139922 0.00122118 0)
(0.139356 0.00171745 0)
(0.138591 0.00235454 0)
(0.137589 0.00318617 0)
(0.136309 0.00429124 0)
(0.134707 0.00578608 0)
(0.132751 0.00783958 0)
(0.130444 0.0106864 0)
(0.127885 0.0146214 0)
(0.125463 0.0198653 0)
(0.124308 0.0258389 0)
(0.100023 -6.16505e-05 0)
(0.100142 -0.00011674 0)
(0.100334 -0.000166824 0)
(0.100585 -0.000212786 0)
(0.100889 -0.000255781 0)
(0.101239 -0.000296475 0)
(0.101632 -0.000335311 0)
(0.102064 -0.000372635 0)
(0.102531 -0.000408714 0)
(0.10303 -0.000443755 0)
(0.103559 -0.000477924 0)
(0.104116 -0.000511353 0)
(0.104698 -0.00054415 0)
(0.105303 -0.0005764 0)
(0.105931 -0.00060817 0)
(0.106579 -0.000639512 0)
(0.107245 -0.000670465 0)
(0.107929 -0.000701057 0)
(0.108629 -0.000731304 0)
(0.109344 -0.000761215 0)
(0.110073 -0.000790788 0)
(0.110815 -0.000820017 0)
(0.111567 -0.000848889 0)
(0.112331 -0.000877384 0)
(0.113103 -0.000905479 0)
(0.113884 -0.000933146 0)
(0.114673 -0.000960356 0)
(0.115467 -0.000987076 0)
(0.116267 -0.00101327 0)
(0.117072 -0.00103889 0)
(0.11788 -0.00106392 0)
(0.11869 -0.00108829 0)
(0.119503 -0.00111197 0)
(0.120316 -0.0011349 0)
(0.121128 -0.00115704 0)
(0.12194 -0.00117831 0)
(0.12275 -0.00119867 0)
(0.123558 -0.00121804 0)
(0.124361 -0.00123633 0)
(0.125161 -0.00125345 0)
(0.125954 -0.00126932 0)
(0.126742 -0.00128379 0)
(0.127522 -0.00129676 0)
(0.128295 -0.00130806 0)
(0.129058 -0.00131752 0)
(0.129811 -0.00132496 0)
(0.130553 -0.00133014 0)
(0.131283 -0.00133282 0)
(0.131999 -0.00133271 0)
(0.132701 -0.00132947 0)
(0.133387 -0.00132272 0)
(0.134056 -0.00131202 0)
(0.134705 -0.00129686 0)
(0.135335 -0.00127665 0)
(0.135941 -0.00125071 0)
(0.136524 -0.00121822 0)
(0.137079 -0.00117823 0)
(0.137606 -0.00112963 0)
(0.138101 -0.00107106 0)
(0.138561 -0.00100093 0)
(0.138982 -0.000917294 0)
(0.139362 -0.000817779 0)
(0.139694 -0.000699482 0)
(0.139975 -0.000558805 0)
(0.140198 -0.000391245 0)
(0.140356 -0.000191122 0)
(0.140442 4.87911e-05 0)
(0.140446 0.000337847 0)
(0.140358 0.000688335 0)
(0.140167 0.00111656 0)
(0.139859 0.00164434 0)
(0.139419 0.00230116 0)
(0.138835 0.0031272 0)
(0.138094 0.00417736 0)
(0.137191 0.00552626 0)
(0.136138 0.00727338 0)
(0.134979 0.00954456 0)
(0.133815 0.0124805 0)
(0.132849 0.0161893 0)
(0.132426 0.0205969 0)
(0.133033 0.0250436 0)
(0.100021 -8.06023e-05 0)
(0.100137 -0.000154251 0)
(0.100326 -0.00022087 0)
(0.100574 -0.000282072 0)
(0.100874 -0.000339298 0)
(0.101221 -0.00039344 0)
(0.101611 -0.000445093 0)
(0.102039 -0.000494723 0)
(0.102503 -0.000542685 0)
(0.102998 -0.000589256 0)
(0.103524 -0.000634658 0)
(0.104076 -0.000679067 0)
(0.104654 -0.000722627 0)
(0.105256 -0.00076545 0)
(0.105879 -0.000807626 0)
(0.106522 -0.000849226 0)
(0.107184 -0.000890301 0)
(0.107863 -0.000930887 0)
(0.108558 -0.000971007 0)
(0.109267 -0.00101067 0)
(0.109991 -0.00104988 0)
(0.110726 -0.00108862 0)
(0.111473 -0.00112687 0)
(0.11223 -0.00116462 0)
(0.112997 -0.00120182 0)
(0.113771 -0.00123845 0)
(0.114552 -0.00127446 0)
(0.11534 -0.00130981 0)
(0.116133 -0.00134445 0)
(0.11693 -0.00137832 0)
(0.11773 -0.00141138 0)
(0.118532 -0.00144357 0)
(0.119336 -0.00147482 0)
(0.120141 -0.00150507 0)
(0.120945 -0.00153426 0)
(0.121748 -0.00156229 0)
(0.122549 -0.00158908 0)
(0.123347 -0.00161455 0)
(0.124141 -0.00163858 0)
(0.12493 -0.00166105 0)
(0.125714 -0.00168184 0)
(0.126491 -0.00170077 0)
(0.127261 -0.00171769 0)
(0.128022 -0.00173239 0)
(0.128775 -0.00174466 0)
(0.129517 -0.00175422 0)
(0.130248 -0.00176081 0)
(0.130966 -0.00176407 0)
(0.131671 -0.00176364 0)
(0.132362 -0.00175908 0)
(0.133036 -0.00174989 0)
(0.133694 -0.00173551 0)
(0.134332 -0.00171526 0)
(0.134951 -0.0016884 0)
(0.135547 -0.00165403 0)
(0.136119 -0.00161112 0)
(0.136666 -0.00155846 0)
(0.137184 -0.00149462 0)
(0.137671 -0.00141791 0)
(0.138126 -0.00132631 0)
(0.138544 -0.00121739 0)
(0.138922 -0.00108824 0)
(0.139256 -0.00093529 0)
(0.139543 -0.000754176 0)
(0.139778 -0.000539509 0)
(0.139955 -0.000284588 0)
(0.140069 1.89734e-05 0)
(0.140114 0.000381633 0)
(0.140083 0.000816875 0)
(0.139971 0.00134201 0)
(0.139772 0.00197929 0)
(0.139483 0.00275738 0)
(0.139103 0.00371304 0)
(0.138641 0.00489296 0)
(0.138117 0.00635493 0)
(0.137572 0.00816701 0)
(0.137078 0.010401 0)
(0.136754 0.013113 0)
(0.136776 0.0162973 0)
(0.137366 0.0197924 0)
(0.13871 0.0231257 0)
(0.100019 -0.000100136 0)
(0.100132 -0.000193528 0)
(0.100318 -0.000277739 0)
(0.100561 -0.000355209 0)
(0.100857 -0.000427633 0)
(0.1012 -0.000496126 0)
(0.101586 -0.000561451 0)
(0.10201 -0.000624195 0)
(0.102468 -0.000684813 0)
(0.102959 -0.000743655 0)
(0.10348 -0.000801004 0)
(0.104027 -0.000857083 0)
(0.1046 -0.000912073 0)
(0.105196 -0.000966119 0)
(0.105814 -0.00101933 0)
(0.106451 -0.00107181 0)
(0.107107 -0.0011236 0)
(0.107779 -0.00117477 0)
(0.108468 -0.00122533 0)
(0.109171 -0.0012753 0)
(0.109887 -0.00132468 0)
(0.110615 -0.00137345 0)
(0.111355 -0.0014216 0)
(0.112104 -0.00146909 0)
(0.112862 -0.00151588 0)
(0.113628 -0.00156193 0)
(0.114401 -0.00160718 0)
(0.11518 -0.00165158 0)
(0.115963 -0.00169506 0)
(0.11675 -0.00173757 0)
(0.117541 -0.00177903 0)
(0.118333 -0.00181937 0)
(0.119127 -0.00185851 0)
(0.119921 -0.00189637 0)
(0.120714 -0.00193286 0)
(0.121506 -0.00196789 0)
(0.122295 -0.00200133 0)
(0.123081 -0.00203308 0)
(0.123863 -0.002063 0)
(0.12464 -0.00209094 0)
(0.125411 -0.00211673 0)
(0.126176 -0.00214018 0)
(0.126932 -0.00216107 0)
(0.127681 -0.00217916 0)
(0.12842 -0.00219416 0)
(0.129148 -0.00220577 0)
(0.129865 -0.00221362 0)
(0.13057 -0.0022173 0)
(0.131261 -0.00221634 0)
(0.131938 -0.00221022 0)
(0.132599 -0.00219831 0)
(0.133243 -0.00217992 0)
(0.133868 -0.00215426 0)
(0.134473 -0.00212039 0)
(0.135057 -0.00207723 0)
(0.135618 -0.00202356 0)
(0.136154 -0.00195792 0)
(0.136663 -0.00187861 0)
(0.137142 -0.00178364 0)
(0.137591 -0.00167065 0)
(0.138005 -0.00153682 0)
(0.138383 -0.00137881 0)
(0.138722 -0.00119258 0)
(0.139018 -0.000973249 0)
(0.139269 -0.000714906 0)
(0.13947 -0.000410322 0)
(0.13962 -5.06693e-05 0)
(0.139714 0.000374713 0)
(0.139751 0.000879044 0)
(0.13973 0.00147871 0)
(0.139652 0.00219381 0)
(0.139522 0.00304875 0)
(0.139351 0.00407269 0)
(0.139157 0.00529954 0)
(0.138972 0.00676662 0)
(0.138846 0.00851114 0)
(0.138849 0.0105619 0)
(0.139081 0.0129229 0)
(0.139661 0.0155448 0)
(0.140709 0.0182805 0)
(0.142285 0.0208387 0)
(0.100016 -0.00012026 0)
(0.100127 -0.000234523 0)
(0.100309 -0.000337397 0)
(0.100548 -0.000432179 0)
(0.100839 -0.0005208 0)
(0.101177 -0.000604586 0)
(0.101557 -0.00068447 0)
(0.101975 -0.000761174 0)
(0.102428 -0.000835252 0)
(0.102914 -0.000907136 0)
(0.103428 -0.000977171 0)
(0.10397 -0.00104563 0)
(0.104536 -0.00111274 0)
(0.105125 -0.00117867 0)
(0.105736 -0.00124357 0)
(0.106366 -0.00130754 0)
(0.107014 -0.00137066 0)
(0.10768 -0.00143299 0)
(0.10836 -0.00149457 0)
(0.109055 -0.0015554 0)
(0.109762 -0.00161549 0)
(0.110482 -0.00167481 0)
(0.111212 -0.00173336 0)
(0.111952 -0.00179107 0)
(0.1127 -0.00184791 0)
(0.113456 -0.00190382 0)
(0.114218 -0.00195874 0)
(0.114986 -0.00201258 0)
(0.115758 -0.00206529 0)
(0.116534 -0.00211678 0)
(0.117313 -0.00216697 0)
(0.118093 -0.00221576 0)
(0.118874 -0.00226307 0)
(0.119655 -0.00230879 0)
(0.120435 -0.00235281 0)
(0.121214 -0.00239502 0)
(0.121989 -0.00243527 0)
(0.122761 -0.00247343 0)
(0.123529 -0.00250934 0)
(0.124291 -0.00254281 0)
(0.125047 -0.00257363 0)
(0.125796 -0.00260159 0)
(0.126538 -0.00262642 0)
(0.127271 -0.00264782 0)
(0.127994 -0.00266546 0)
(0.128706 -0.00267897 0)
(0.129407 -0.00268791 0)
(0.130096 -0.0026918 0)
(0.130771 -0.00269008 0)
(0.131432 -0.00268213 0)
(0.132077 -0.00266723 0)
(0.132705 -0.00264456 0)
(0.133315 -0.00261319 0)
(0.133906 -0.00257204 0)
(0.134476 -0.00251989 0)
(0.135024 -0.0024553 0)
(0.135548 -0.00237664 0)
(0.136047 -0.00228199 0)
(0.136519 -0.00216911 0)
(0.136961 -0.00203541 0)
(0.137373 -0.00187781 0)
(0.137753 -0.0016927 0)
(0.138098 -0.00147581 0)
(0.138406 -0.00122204 0)
(0.138677 -0.000925374 0)
(0.138908 -0.000578602 0)
(0.139099 -0.00017318 0)
(0.139249 0.000300923 0)
(0.13936 0.000855421 0)
(0.139435 0.00150427 0)
(0.13948 0.00226366 0)
(0.139505 0.00315195 0)
(0.139527 0.00418923 0)
(0.139568 0.00539627 0)
(0.139661 0.00679236 0)
(0.139851 0.00839143 0)
(0.140196 0.0101955 0)
(0.140763 0.0121846 0)
(0.141624 0.0143026 0)
(0.142837 0.016441 0)
(0.144409 0.0184311 0)
(0.100014 -0.000140995 0)
(0.100123 -0.000277204 0)
(0.100299 -0.000399811 0)
(0.100533 -0.000512955 0)
(0.100819 -0.000618792 0)
(0.101151 -0.000718839 0)
(0.101525 -0.000814203 0)
(0.101937 -0.00090574 0)
(0.102383 -0.00099411 0)
(0.102862 -0.00107983 0)
(0.103369 -0.00116331 0)
(0.103903 -0.00124489 0)
(0.104462 -0.00132482 0)
(0.105043 -0.00140332 0)
(0.105646 -0.00148056 0)
(0.106268 -0.00155666 0)
(0.106907 -0.00163171 0)
(0.107563 -0.0017058 0)
(0.108234 -0.00177895 0)
(0.108919 -0.00185119 0)
(0.109617 -0.00192252 0)
(0.110326 -0.00199291 0)
(0.111045 -0.00206233 0)
(0.111773 -0.00213073 0)
(0.11251 -0.00219806 0)
(0.113254 -0.00226425 0)
(0.114004 -0.00232922 0)
(0.114759 -0.00239289 0)
(0.115518 -0.00245516 0)
(0.116281 -0.00251595 0)
(0.117046 -0.00257516 0)
(0.117812 -0.00263267 0)
(0.118578 -0.00268837 0)
(0.119344 -0.00274215 0)
(0.120109 -0.00279387 0)
(0.120872 -0.0028434 0)
(0.121631 -0.00289057 0)
(0.122387 -0.00293522 0)
(0.123138 -0.00297715 0)
(0.123884 -0.00301616 0)
(0.124623 -0.003052 0)
(0.125354 -0.0030844 0)
(0.126078 -0.00311307 0)
(0.126793 -0.00313766 0)
(0.127498 -0.00315779 0)
(0.128193 -0.00317301 0)
(0.128875 -0.00318283 0)
(0.129546 -0.0031867 0)
(0.130203 -0.00318398 0)
(0.130846 -0.00317396 0)
(0.131473 -0.00315582 0)
(0.132084 -0.00312864 0)
(0.132677 -0.00309138 0)
(0.133252 -0.00304283 0)
(0.133807 -0.00298165 0)
(0.134341 -0.00290625 0)
(0.134853 -0.00281486 0)
(0.135342 -0.00270542 0)
(0.135805 -0.00257554 0)
(0.136243 -0.00242251 0)
(0.136654 -0.00224313 0)
(0.137036 -0.00203373 0)
(0.13739 -0.00179005 0)
(0.137713 -0.00150712 0)
(0.138006 -0.0011792 0)
(0.13827 -0.000799618 0)
(0.138505 -0.000360731 0)
(0.138714 0.00014619 0)
(0.1389 0.000730522 0)
(0.139069 0.00140294 0)
(0.13923 0.00217502 0)
(0.139396 0.0030588 0)
(0.139583 0.00406589 0)
(0.139814 0.00520622 0)
(0.140118 0.00648601 0)
(0.14053 0.0079048 0)
(0.141088 0.00945147 0)
(0.141837 0.0110992 0)
(0.142814 0.0127998 0)
(0.144043 0.0144804 0)
(0.145515 0.0160457 0)
(0.100012 -0.000162365 0)
(0.100118 -0.000321544 0)
(0.10029 -0.000464952 0)
(0.100518 -0.000597502 0)
(0.100797 -0.000721585 0)
(0.101123 -0.00083888 0)
(0.10149 -0.000950664 0)
(0.101894 -0.00105793 0)
(0.102333 -0.00116145 0)
(0.102804 -0.00126182 0)
(0.103303 -0.00135953 0)
(0.103829 -0.00145496 0)
(0.104379 -0.00154843 0)
(0.104951 -0.00164019 0)
(0.105544 -0.00173042 0)
(0.106156 -0.00181928 0)
(0.106785 -0.00190689 0)
(0.107431 -0.00199332 0)
(0.108091 -0.00207861 0)
(0.108764 -0.0021628 0)
(0.10945 -0.00224587 0)
(0.110147 -0.00232781 0)
(0.110854 -0.00240858 0)
(0.111569 -0.00248811 0)
(0.112293 -0.00256635 0)
(0.113023 -0.0026432 0)
(0.113759 -0.00271859 0)
(0.114499 -0.00279241 0)
(0.115244 -0.00286456 0)
(0.115991 -0.00293492 0)
(0.11674 -0.00300339 0)
(0.11749 -0.00306983 0)
(0.11824 -0.00313411 0)
(0.118989 -0.0031961 0)
(0.119736 -0.00325563 0)
(0.120481 -0.00331256 0)
(0.121223 -0.0033667 0)
(0.12196 -0.00341785 0)
(0.122692 -0.00346579 0)
(0.123418 -0.00351028 0)
(0.124138 -0.00355105 0)
(0.12485 -0.00358779 0)
(0.125554 -0.00362015 0)
(0.126249 -0.00364776 0)
(0.126934 -0.00367017 0)
(0.127608 -0.00368689 0)
(0.128271 -0.00369736 0)
(0.128922 -0.00370098 0)
(0.129559 -0.00369703 0)
(0.130182 -0.00368472 0)
(0.13079 -0.00366316 0)
(0.131382 -0.00363135 0)
(0.131958 -0.00358814 0)
(0.132515 -0.00353226 0)
(0.133055 -0.00346226 0)
(0.133574 -0.00337647 0)
(0.134074 -0.00327305 0)
(0.134552 -0.00314986 0)
(0.135008 -0.0030045 0)
(0.135441 -0.00283422 0)
(0.135851 -0.00263591 0)
(0.136238 -0.00240604 0)
(0.136601 -0.00214057 0)
(0.136941 -0.00183499 0)
(0.137259 -0.00148417 0)
(0.137557 -0.00108242 0)
(0.137836 -0.000623413 0)
(0.138102 -0.000100257 0)
(0.138359 0.000494144 0)
(0.138614 0.00116673 0)
(0.138877 0.00192465 0)
(0.139161 0.00277437 0)
(0.139481 0.00372084 0)
(0.139856 0.00476636 0)
(0.140307 0.00590918 0)
(0.14086 0.00714167 0)
(0.14154 0.00844835 0)
(0.142371 0.00980394 0)
(0.143371 0.0111721 0)
(0.144547 0.0125057 0)
(0.145886 0.0137513 0)
(0.100009 -0.000184396 0)
(0.100113 -0.000367525 0)
(0.10028 -0.000532788 0)
(0.100502 -0.000685779 0)
(0.100775 -0.000829133 0)
(0.101093 -0.000964671 0)
(0.101452 -0.00109383 0)
(0.101849 -0.00121773 0)
(0.102279 -0.00133726 0)
(0.102741 -0.00145311 0)
(0.10323 -0.00156584 0)
(0.103746 -0.00167589 0)
(0.104286 -0.00178362 0)
(0.104848 -0.00188931 0)
(0.10543 -0.00199321 0)
(0.106031 -0.00209547 0)
(0.106649 -0.00219622 0)
(0.107282 -0.00229557 0)
(0.10793 -0.00239355 0)
(0.10859 -0.00249021 0)
(0.109263 -0.00258552 0)
(0.109946 -0.00267948 0)
(0.110639 -0.00277203 0)
(0.11134 -0.00286311 0)
(0.112048 -0.00295263 0)
(0.112762 -0.0030405 0)
(0.113482 -0.00312663 0)
(0.114206 -0.00321089 0)
(0.114934 -0.00329317 0)
(0.115664 -0.00337334 0)
(0.116395 -0.00345126 0)
(0.117127 -0.00352678 0)
(0.117858 -0.00359977 0)
(0.118588 -0.00367006 0)
(0.119316 -0.00373747 0)
(0.120041 -0.00380182 0)
(0.120763 -0.0038629 0)
(0.121479 -0.00392051 0)
(0.122191 -0.00397438 0)
(0.122896 -0.00402424 0)
(0.123594 -0.0040698 0)
(0.124285 -0.0041107 0)
(0.124967 -0.00414657 0)
(0.12564 -0.00417698 0)
(0.126303 -0.00420144 0)
(0.126956 -0.00421943 0)
(0.127596 -0.00423033 0)
(0.128225 -0.00423347 0)
(0.128841 -0.00422809 0)
(0.129443 -0.00421334 0)
(0.13003 -0.00418828 0)
(0.130603 -0.00415183 0)
(0.131159 -0.00410281 0)
(0.131699 -0.00403988 0)
(0.132222 -0.00396156 0)
(0.132727 -0.00386617 0)
(0.133214 -0.00375183 0)
(0.133681 -0.00361646 0)
(0.13413 -0.00345772 0)
(0.13456 -0.00327299 0)
(0.13497 -0.00305938 0)
(0.135362 -0.00281367 0)
(0.135736 -0.00253231 0)
(0.136093 -0.00221142 0)
(0.136435 -0.00184677 0)
(0.136765 -0.00143387 0)
(0.137086 -0.000967978 0)
(0.137403 -0.000444191 0)
(0.137723 0.000142442 0)
(0.138052 0.000795651 0)
(0.138399 0.00151872 0)
(0.138775 0.00231387 0)
(0.139193 0.00318149 0)
(0.139667 0.00411931 0)
(0.140213 0.00512162 0)
(0.140847 0.00617836 0)
(0.141583 0.00727438 0)
(0.142434 0.00838906 0)
(0.143406 0.00949653 0)
(0.144501 0.0105671 0)
(0.145705 0.0115703 0)
(0.100006 -0.000207111 0)
(0.100108 -0.000415127 0)
(0.10027 -0.000603281 0)
(0.100486 -0.000777733 0)
(0.100751 -0.00094137 0)
(0.101061 -0.00109614 0)
(0.101412 -0.00124362 0)
(0.101799 -0.00138507 0)
(0.10222 -0.00152149 0)
(0.102672 -0.00165365 0)
(0.103151 -0.00178219 0)
(0.103656 -0.00190761 0)
(0.104185 -0.00203032 0)
(0.104735 -0.00215065 0)
(0.105305 -0.00226885 0)
(0.105893 -0.00238513 0)
(0.106498 -0.00249962 0)
(0.107118 -0.00261244 0)
(0.107751 -0.00272365 0)
(0.108397 -0.00283327 0)
(0.109055 -0.0029413 0)
(0.109723 -0.00304771 0)
(0.110399 -0.00315245 0)
(0.111084 -0.00325544 0)
(0.111775 -0.00335659 0)
(0.112473 -0.00345579 0)
(0.113175 -0.00355293 0)
(0.113881 -0.00364788 0)
(0.114589 -0.00374049 0)
(0.1153 -0.00383063 0)
(0.116011 -0.00391814 0)
(0.116723 -0.00400286 0)
(0.117434 -0.00408461 0)
(0.118143 -0.00416322 0)
(0.11885 -0.0042385 0)
(0.119553 -0.00431023 0)
(0.120252 -0.00437819 0)
(0.120947 -0.00444213 0)
(0.121635 -0.00450179 0)
(0.122317 -0.00455686 0)
(0.122993 -0.004607 0)
(0.12366 -0.00465185 0)
(0.124318 -0.00469099 0)
(0.124968 -0.00472396 0)
(0.125607 -0.00475024 0)
(0.126236 -0.00476925 0)
(0.126853 -0.00478035 0)
(0.127458 -0.00478283 0)
(0.128051 -0.00477589 0)
(0.128631 -0.00475864 0)
(0.129197 -0.0047301 0)
(0.129749 -0.00468919 0)
(0.130285 -0.00463469 0)
(0.130807 -0.00456527 0)
(0.131313 -0.00447944 0)
(0.131803 -0.00437558 0)
(0.132277 -0.00425189 0)
(0.132734 -0.0041064 0)
(0.133176 -0.00393693 0)
(0.133602 -0.00374114 0)
(0.134012 -0.00351647 0)
(0.134409 -0.00326016 0)
(0.134793 -0.00296928 0)
(0.135166 -0.00264075 0)
(0.13553 -0.00227137 0)
(0.135889 -0.00185792 0)
(0.136247 -0.00139725 0)
(0.136608 -0.000886362 0)
(0.136978 -0.000322543 0)
(0.137365 0.000296487 0)
(0.137775 0.000970544 0)
(0.138217 0.00169898 0)
(0.138702 0.00247949 0)
(0.139238 0.00330762 0)
(0.139836 0.00417633 0)
(0.140506 0.00507576 0)
(0.141256 0.00599307 0)
(0.14209 0.00691263 0)
(0.14301 0.00781666 0)
(0.144014 0.00868647 0)
(0.145091 0.00950463 0)
(0.100004 -0.000230522 0)
(0.100103 -0.00046432 0)
(0.100261 -0.000676377 0)
(0.100469 -0.000873287 0)
(0.100727 -0.0010582 0)
(0.101028 -0.00123318 0)
(0.10137 -0.00139993 0)
(0.101747 -0.00155983 0)
(0.102158 -0.001714 0)
(0.102598 -0.00186329 0)
(0.103066 -0.00200843 0)
(0.103559 -0.00214997 0)
(0.104075 -0.00228837 0)
(0.104612 -0.00242401 0)
(0.105168 -0.00255716 0)
(0.105742 -0.00268806 0)
(0.106333 -0.00281686 0)
(0.106937 -0.00294369 0)
(0.107555 -0.00306862 0)
(0.108186 -0.00319167 0)
(0.108827 -0.00331285 0)
(0.109477 -0.00343211 0)
(0.110136 -0.0035494 0)
(0.110803 -0.00366463 0)
(0.111475 -0.0037777 0)
(0.112154 -0.00388849 0)
(0.112836 -0.00399686 0)
(0.113522 -0.00410268 0)
(0.11421 -0.00420578 0)
(0.114899 -0.004306 0)
(0.115589 -0.00440316 0)
(0.116279 -0.0044971 0)
(0.116967 -0.00458762 0)
(0.117653 -0.00467451 0)
(0.118337 -0.00475758 0)
(0.119016 -0.00483658 0)
(0.119692 -0.00491127 0)
(0.120362 -0.00498138 0)
(0.121026 -0.00504662 0)
(0.121683 -0.00510666 0)
(0.122333 -0.00516115 0)
(0.122975 -0.00520969 0)
(0.123608 -0.00525183 0)
(0.124232 -0.0052871 0)
(0.124846 -0.00531494 0)
(0.12545 -0.00533475 0)
(0.126042 -0.00534587 0)
(0.126623 -0.00534755 0)
(0.127192 -0.005339 0)
(0.127748 -0.0053193 0)
(0.128292 -0.00528748 0)
(0.128822 -0.00524245 0)
(0.129338 -0.00518303 0)
(0.129841 -0.00510792 0)
(0.13033 -0.00501572 0)
(0.130804 -0.0049049 0)
(0.131265 -0.00477381 0)
(0.131712 -0.00462067 0)
(0.132146 -0.00444358 0)
(0.132568 -0.00424053 0)
(0.132979 -0.00400939 0)
(0.133379 -0.00374798 0)
(0.133771 -0.00345405 0)
(0.134157 -0.00312536 0)
(0.13454 -0.00275974 0)
(0.134923 -0.00235517 0)
(0.135309 -0.0019099 0)
(0.135704 -0.00142255 0)
(0.136112 -0.000892242 0)
(0.136539 -0.000318599 0)
(0.136992 0.000298123 0)
(0.137477 0.000954601 0)
(0.138 0.00164709 0)
(0.138568 0.00237046 0)
(0.139187 0.00311794 0)
(0.139862 0.003881 0)
(0.140597 0.00464954 0)
(0.141393 0.00541225 0)
(0.14225 0.00615711 0)
(0.143163 0.00687234 0)
(0.144126 0.0075478 0)
(0.1 -0.000254634 0)
(0.100098 -0.000515067 0)
(0.100251 -0.000752 0)
(0.100452 -0.000972336 0)
(0.100702 -0.00117949 0)
(0.100994 -0.00137563 0)
(0.101325 -0.00156256 0)
(0.101692 -0.00174181 0)
(0.102091 -0.00191457 0)
(0.10252 -0.00208181 0)
(0.102975 -0.00224431 0)
(0.103454 -0.0024027 0)
(0.103957 -0.00255748 0)
(0.104479 -0.00270907 0)
(0.105021 -0.00285779 0)
(0.105579 -0.00300388 0)
(0.106153 -0.00314753 0)
(0.106741 -0.00328887 0)
(0.107342 -0.00342798 0)
(0.107955 -0.00356489 0)
(0.108577 -0.00369959 0)
(0.109209 -0.00383206 0)
(0.109849 -0.00396221 0)
(0.110495 -0.00408996 0)
(0.111148 -0.00421518 0)
(0.111805 -0.00433775 0)
(0.112465 -0.00445752 0)
(0.113129 -0.00457432 0)
(0.113795 -0.00468798 0)
(0.114461 -0.00479832 0)
(0.115128 -0.00490515 0)
(0.115793 -0.00500827 0)
(0.116457 -0.00510747 0)
(0.117119 -0.00520254 0)
(0.117777 -0.00529324 0)
(0.118431 -0.00537932 0)
(0.11908 -0.00546053 0)
(0.119724 -0.00553657 0)
(0.120362 -0.00560714 0)
(0.120992 -0.00567188 0)
(0.121616 -0.00573043 0)
(0.122231 -0.00578236 0)
(0.122837 -0.00582722 0)
(0.123434 -0.00586451 0)
(0.124022 -0.00589367 0)
(0.124599 -0.00591408 0)
(0.125165 -0.00592508 0)
(0.125721 -0.00592592 0)
(0.126264 -0.0059158 0)
(0.126796 -0.00589383 0)
(0.127316 -0.00585907 0)
(0.127824 -0.00581047 0)
(0.12832 -0.00574691 0)
(0.128803 -0.0056672 0)
(0.129274 -0.00557004 0)
(0.129733 -0.00545407 0)
(0.13018 -0.00531785 0)
(0.130616 -0.00515984 0)
(0.131042 -0.00497849 0)
(0.131459 -0.00477218 0)
(0.131868 -0.00453927 0)
(0.13227 -0.00427816 0)
(0.132668 -0.0039873 0)
(0.133063 -0.00366525 0)
(0.133459 -0.00331075 0)
(0.133858 -0.00292283 0)
(0.134265 -0.00250085 0)
(0.134682 -0.00204464 0)
(0.135114 -0.00155459 0)
(0.135566 -0.00103167 0)
(0.136042 -0.000477421 0)
(0.136548 0.000106191 0)
(0.137087 0.000714617 0)
(0.137664 0.00134217 0)
(0.13828 0.0019829 0)
(0.13894 0.00262999 0)
(0.139643 0.00327593 0)
(0.14039 0.00391269 0)
(0.141179 0.00453224 0)
(0.142006 0.00512711 0)
(0.142866 0.00569134 0)
(0.0999972 -0.000279432 0)
(0.100093 -0.000567308 0)
(0.10024 -0.00083004 0)
(0.100435 -0.00107473 0)
(0.100675 -0.00130505 0)
(0.100958 -0.00152325 0)
(0.101279 -0.00173126 0)
(0.101634 -0.0019307 0)
(0.102021 -0.00212288 0)
(0.102436 -0.00230884 0)
(0.102877 -0.00248945 0)
(0.103342 -0.00266538 0)
(0.103829 -0.00283719 0)
(0.104336 -0.00300535 0)
(0.104861 -0.0031702 0)
(0.105403 -0.00333202 0)
(0.105959 -0.00349101 0)
(0.106529 -0.00364731 0)
(0.107111 -0.00380101 0)
(0.107704 -0.00395215 0)
(0.108307 -0.00410072 0)
(0.108918 -0.00424668 0)
(0.109536 -0.00438994 0)
(0.110161 -0.00453041 0)
(0.110791 -0.00466796 0)
(0.111425 -0.00480244 0)
(0.112063 -0.00493368 0)
(0.112703 -0.00506151 0)
(0.113344 -0.00518573 0)
(0.113985 -0.00530615 0)
(0.114626 -0.00542256 0)
(0.115266 -0.00553474 0)
(0.115904 -0.00564248 0)
(0.116538 -0.00574553 0)
(0.11717 -0.00584364 0)
(0.117796 -0.00593656 0)
(0.118418 -0.00602401 0)
(0.119034 -0.00610568 0)
(0.119643 -0.00618125 0)
(0.120246 -0.00625037 0)
(0.12084 -0.00631265 0)
(0.121427 -0.00636766 0)
(0.122005 -0.00641494 0)
(0.122574 -0.00645399 0)
(0.123133 -0.00648425 0)
(0.123683 -0.0065051 0)
(0.124222 -0.0065159 0)
(0.124751 -0.00651592 0)
(0.125269 -0.00650439 0)
(0.125776 -0.00648048 0)
(0.126271 -0.00644328 0)
(0.126756 -0.00639184 0)
(0.12723 -0.00632514 0)
(0.127693 -0.00624212 0)
(0.128146 -0.00614165 0)
(0.128588 -0.00602256 0)
(0.129021 -0.00588366 0)
(0.129445 -0.00572373 0)
(0.129862 -0.00554156 0)
(0.130272 -0.00533595 0)
(0.130676 -0.00510575 0)
(0.131078 -0.00484992 0)
(0.131477 -0.00456754 0)
(0.131877 -0.00425787 0)
(0.13228 -0.00392042 0)
(0.132689 -0.00355499 0)
(0.133106 -0.00316177 0)
(0.133535 -0.00274139 0)
(0.133978 -0.00229498 0)
(0.13444 -0.00182422 0)
(0.134923 -0.00133133 0)
(0.135432 -0.000818954 0)
(0.135968 -0.000290002 0)
(0.136534 0.000251677 0)
(0.137132 0.000800419 0)
(0.137762 0.00135027 0)
(0.138424 0.00189567 0)
(0.139116 0.00243103 0)
(0.139837 0.00295106 0)
(0.140584 0.00345106 0)
(0.141352 0.00392752 0)
(0.0999937 -0.000304889 0)
(0.100088 -0.000620957 0)
(0.10023 -0.000910351 0)
(0.100417 -0.00118027 0)
(0.100648 -0.00143462 0)
(0.100921 -0.00167575 0)
(0.10123 -0.00190568 0)
(0.101573 -0.00212611 0)
(0.101946 -0.00233848 0)
(0.102347 -0.00254389 0)
(0.102773 -0.00274329 0)
(0.103223 -0.00293741 0)
(0.103693 -0.00312687 0)
(0.104183 -0.00331216 0)
(0.10469 -0.00349367 0)
(0.105213 -0.00367169 0)
(0.10575 -0.00384645 0)
(0.1063 -0.00401811 0)
(0.106862 -0.00418675 0)
(0.107433 -0.00435242 0)
(0.108014 -0.00451511 0)
(0.108603 -0.00467478 0)
(0.109199 -0.00483133 0)
(0.1098 -0.00498466 0)
(0.110406 -0.00513461 0)
(0.111015 -0.00528104 0)
(0.111627 -0.00542376 0)
(0.112241 -0.00556257 0)
(0.112856 -0.00569727 0)
(0.11347 -0.00582764 0)
(0.114084 -0.00595347 0)
(0.114696 -0.00607452 0)
(0.115306 -0.00619054 0)