/*--------------------------------*- C++ -*----------------------------------*\
| =========                 |                                                 |
| \\      /  F ield         | OpenFOAM: The Open Source CFD Toolbox           |
|  \\    /   O peration     | Version:  2106                                  |
|   \\  /    A nd           | Website:  www.openfoam.com                      |
|    \\/     M anipulation  |                                                 |
\*---------------------------------------------------------------------------*/
FoamFile
{
    version     2.0;
    format      ascii;
    arch        "LSB;label=32;scalar=64";
    class       surfaceScalarField;
    location    "2.2";
    object      phi;
}
// * * * * * * * * * * * * * * * * * * * * * * * * * * * * * * * * * * * * * //

dimensions      [1 0 -1 0 0 0 0];

oriented        oriented;

internalField   nonuniform List<scalar> 
23692
(
9.3133e-05
-5.34612e-08
9.32297e-05
-9.6544e-08
9.33636e-05
-1.33768e-07
9.35292e-05
-1.65263e-07
9.37218e-05
-1.92269e-07
9.39378e-05
-2.15565e-07
9.41739e-05
-2.3566e-07
9.44274e-05
-2.52941e-07
9.46958e-05
-2.67688e-07
9.49766e-05
-2.80123e-07
9.52678e-05
-2.90419e-07
9.55674e-05
-2.98754e-07
9.58736e-05
-3.0531e-07
9.61849e-05
-3.10297e-07
9.64999e-05
-3.13967e-07
9.68176e-05
-3.16588e-07
9.71373e-05
-3.18459e-07
9.74584e-05
-3.19876e-07
9.77808e-05
-3.21119e-07
9.81046e-05
-3.22442e-07
9.843e-05
-3.2405e-07
9.87576e-05
-3.26098e-07
9.90877e-05
-3.28687e-07
9.94211e-05
-3.31859e-07
9.97583e-05
-3.35609e-07
0.0001001
-3.39896e-07
0.000100446
-3.44641e-07
0.000100798
-3.49752e-07
0.000101154
-3.55115e-07
0.000101517
-3.60617e-07
0.000101885
-3.66145e-07
0.000102258
-3.71589e-07
0.000102637
-3.76847e-07
0.00010302
-3.81829e-07
0.000103409
-3.86448e-07
0.000103801
-3.90633e-07
0.000104197
-3.94315e-07
0.000104597
-3.97433e-07
0.000104999
-3.99934e-07
0.000105402
-4.01764e-07
0.000105807
-4.02876e-07
0.000106212
-4.03218e-07
0.000106617
-4.02744e-07
0.00010702
-4.01402e-07
0.000107421
-3.9914e-07
0.000107819
-3.95897e-07
0.000108213
-3.91614e-07
0.000108601
-3.86218e-07
0.000108982
-3.79633e-07
0.000109356
-3.71769e-07
0.00010972
-3.62529e-07
0.000110074
-3.51797e-07
0.000110415
-3.3944e-07
0.000110743
-3.25306e-07
0.000111054
-3.09217e-07
0.000111346
-2.90962e-07
0.000111618
-2.70294e-07
0.000111867
-2.46917e-07
0.000112089
-2.20477e-07
0.000112282
-1.90549e-07
0.00011244
-1.56609e-07
0.00011256
-1.18022e-07
0.000112636
-7.39974e-08
0.000112661
-2.35476e-08
0.000112628
3.45956e-08
0.000112527
1.02091e-07
0.000112348
1.81106e-07
0.000112075
2.74511e-07
0.00011169
3.86192e-07
0.00011117
5.21514e-07
0.000110484
6.88045e-07
0.000109589
8.9671e-07
0.000108427
1.16366e-06
0.000106915
1.51339e-06
0.000104932
1.98396e-06
0.000102298
2.63591e-06
9.87322e-05
3.56713e-06
9.37945e-05
4.93914e-06
8.67585e-05
7.03747e-06
7.63384e-05
1.04214e-05
1.66217e-05
5.97181e-05
9.96552e-05
-1.0942e-07
9.97581e-05
-1.99381e-07
9.99011e-05
-2.76564e-07
0.000100078
-3.41728e-07
0.000100284
-3.97634e-07
0.000100514
-4.45851e-07
0.000100767
-4.87434e-07
0.000101038
-5.23184e-07
0.000101324
-5.53695e-07
0.000101624
-5.79408e-07
0.000101935
-6.00702e-07
0.000102255
-6.17928e-07
0.000102583
-6.31469e-07
0.000102915
-6.41765e-07
0.000103252
-6.49324e-07
0.000103591
-6.54714e-07
0.000103932
-6.58544e-07
0.000104275
-6.61428e-07
0.000104619
-6.63951e-07
0.000104965
-6.66632e-07
0.000105312
-6.69902e-07
0.000105662
-6.7408e-07
0.000106014
-6.79372e-07
0.00010637
-6.85868e-07
0.000106729
-6.93563e-07
0.000107094
-7.02365e-07
0.000107463
-7.12119e-07
0.000107838
-7.22622e-07
0.000108218
-7.33652e-07
0.000108604
-7.44968e-07
0.000108996
-7.56335e-07
0.000109394
-7.6753e-07
0.000109798
-7.78341e-07
0.000110206
-7.88577e-07
0.00011062
-7.98066e-07
0.000111038
-8.06653e-07
0.00011146
-8.142e-07
0.000111885
-8.20581e-07
0.000112313
-8.25683e-07
0.000112743
-8.294e-07
0.000113173
-8.31627e-07
0.000113604
-8.32267e-07
0.000114035
-8.31216e-07
0.000114464
-8.28373e-07
0.000114891
-8.23626e-07
0.000115314
-8.16856e-07
0.000115732
-8.07934e-07
0.000116145
-7.96718e-07
0.00011655
-7.83046e-07
0.000116947
-7.66739e-07
0.000117334
-7.47593e-07
0.00011771
-7.25374e-07
0.000118072
-6.9981e-07
0.000118419
-6.70593e-07
0.000118749
-6.37355e-07
0.00011906
-5.99673e-07
0.000119349
-5.57041e-07
0.000119613
-5.08862e-07
0.000119848
-4.5442e-07
0.000120053
-3.92853e-07
0.000120221
-3.23114e-07
0.000120349
-2.43922e-07
0.00012043
-1.53697e-07
0.000120459
-5.04695e-08
0.000120427
6.82665e-08
0.000120325
2.05758e-07
0.000120142
3.66226e-07
0.000119863
5.5521e-07
0.000119471
7.80121e-07
0.000118943
1.05104e-06
0.00011825
1.38193e-06
0.000117356
1.7925e-06
0.000116211
2.31104e-06
0.000114747
2.97888e-06
0.000112875
3.85722e-06
0.000110475
5.03718e-06
0.000107391
6.65287e-06
0.000103436
8.89535e-06
9.84505e-05
1.20249e-05
9.25656e-05
1.63078e-05
2.1387e-05
8.78018e-05
0.000106634
-1.6766e-07
0.000106743
-3.08534e-07
0.000106895
-4.28401e-07
0.000107083
-5.29677e-07
0.000107303
-6.16512e-07
0.000107549
-6.91379e-07
0.000107818
-7.55928e-07
0.000108107
-8.11413e-07
0.000108412
-8.58748e-07
0.000108732
-8.9863e-07
0.000109064
-9.31641e-07
0.000109406
-9.58331e-07
0.000109755
-9.79295e-07
0.000110109
-9.95213e-07
0.000110468
-1.00687e-06
0.00011083
-1.01515e-06
0.000111193
-1.021e-06
0.000111559
-1.02536e-06
0.000111925
-1.02916e-06
0.000112294
-1.03318e-06
0.000112663
-1.03811e-06
0.000113035
-1.04444e-06
0.00011341
-1.05249e-06
0.000113788
-1.0624e-06
0.000114171
-1.07417e-06
0.000114558
-1.08765e-06
0.00011495
-1.1026e-06
0.000115348
-1.11872e-06
0.000115752
-1.13565e-06
0.000116162
-1.15302e-06
0.000116579
-1.17047e-06
0.000117001
-1.18766e-06
0.000117429
-1.20424e-06
0.000117862
-1.21994e-06
0.000118301
-1.23447e-06
0.000118744
-1.2476e-06
0.000119191
-1.25912e-06
0.000119641
-1.26883e-06
0.000120094
-1.27656e-06
0.000120549
-1.28213e-06
0.000121005
-1.28539e-06
0.000121462
-1.28619e-06
0.000121917
-1.28438e-06
0.00012237
-1.27978e-06
0.000122821
-1.27223e-06
0.000123268
-1.26155e-06
0.00012371
-1.24755e-06
0.000124145
-1.22999e-06
0.000124573
-1.20864e-06
0.000124992
-1.18322e-06
0.0001254
-1.15342e-06
0.000125796
-1.11888e-06
0.000126177
-1.0792e-06
0.000126542
-1.0339e-06
0.00012689
-9.82428e-07
0.000127216
-9.24143e-07
0.000127519
-8.58285e-07
0.000127797
-7.83958e-07
0.000128044
-7.00091e-07
0.000128259
-6.05397e-07
0.000128436
-4.98324e-07
0.000128571
-3.76979e-07
0.000128658
-2.3904e-07
0.000128691
-8.16289e-08
0.000128663
9.88651e-08
0.000128563
3.07065e-07
0.000128383
5.48913e-07
0.000128108
8.32107e-07
0.000127723
1.16675e-06
0.000127209
1.56627e-06
0.000126544
2.04878e-06
0.0001257
2.63895e-06
0.000124642
3.37071e-06
0.000123331
4.29097e-06
0.000121726
5.46443e-06
0.000119786
6.97872e-06
0.000117494
8.9468e-06
0.000114892
1.14983e-05
0.00011218
1.47389e-05
0.000109894
1.85954e-05
2.23367e-05
0.000108946
0.000114101
-2.28146e-07
0.000114216
-4.23856e-07
0.000114378
-5.89336e-07
0.000114578
-7.29313e-07
0.000114811
-8.49262e-07
0.000115073
-9.52626e-07
0.000115359
-1.04171e-06
0.000115666
-1.11826e-06
0.000115992
-1.18354e-06
0.000116333
-1.23851e-06
0.000116686
-1.28399e-06
0.00011705
-1.32074e-06
0.000117421
-1.34957e-06
0.000117798
-1.37141e-06
0.00011818
-1.38737e-06
0.000118565
-1.39864e-06
0.000118952
-1.40653e-06
0.00011934
-1.41234e-06
0.00011973
-1.41735e-06
0.000120121
-1.42265e-06
0.000120514
-1.42917e-06
0.000120909
-1.4376e-06
0.000121307
-1.44838e-06
0.000121708
-1.46172e-06
0.000122113
-1.47761e-06
0.000122524
-1.49585e-06
0.000122939
-1.51611e-06
0.00012336
-1.53797e-06
0.000123788
-1.56095e-06
0.000124221
-1.58455e-06
0.000124661
-1.60824e-06
0.000125108
-1.63157e-06
0.00012556
-1.65407e-06
0.000126017
-1.67534e-06
0.00012648
-1.695e-06
0.000126948
-1.71274e-06
0.000127419
-1.72824e-06
0.000127894
-1.74125e-06
0.000128371
-1.75153e-06
0.00012885
-1.75883e-06
0.00012933
-1.76296e-06
0.00012981
-1.76369e-06
0.000130289
-1.76081e-06
0.000130765
-1.75411e-06
0.000131239
-1.74335e-06
0.000131708
-1.72828e-06
0.000132171
-1.70865e-06
0.000132628
-1.68414e-06
0.000133076
-1.65444e-06
0.000133514
-1.61916e-06
0.000133941
-1.57789e-06
0.000134355
-1.53016e-06
0.000134753
-1.47541e-06
0.000135134
-1.41302e-06
0.000135497
-1.34225e-06
0.000135837
-1.26225e-06
0.000136153
-1.17202e-06
0.000136441
-1.07038e-06
0.000136699
-9.55935e-07
0.000136923
-8.27007e-07
0.000137109
-6.81589e-07
0.000137251
-5.17257e-07
0.000137345
-3.31053e-07
0.000137385
-1.1935e-07
0.000137363
1.22327e-07
0.000137273
3.99608e-07
0.000137104
7.19624e-07
0.000136847
1.09142e-06
0.000136489
1.52659e-06
0.000136017
2.04006e-06
0.000135417
2.65124e-06
0.000134672
3.38539e-06
0.000133769
4.27534e-06
0.000132699
5.36341e-06
0.000131462
6.70293e-06
0.000130085
8.35773e-06
0.000128637
1.0396e-05
0.000127267
1.28707e-05
0.000126238
1.57695e-05
0.000125931
1.8904e-05
2.17019e-05
0.000126568
0.000122091
-2.90897e-07
0.000122213
-5.45263e-07
0.000122383
-7.59404e-07
0.000122595
-9.40799e-07
0.000122842
-1.09617e-06
0.00012312
-1.23e-06
0.000123424
-1.34529e-06
0.000123751
-1.4443e-06
0.000124097
-1.5287e-06
0.000124459
-1.59974e-06
0.000124835
-1.65847e-06
0.000125221
-1.70588e-06
0.000125616
-1.74302e-06
0.000126017
-1.7711e-06
0.000126422
-1.79153e-06
0.000126831
-1.80586e-06
0.000127242
-1.81578e-06
0.000127654
-1.82298e-06
0.000128067
-1.82908e-06
0.000128482
-1.83552e-06
0.000128898
-1.84349e-06
0.000129316
-1.8539e-06
0.000129737
-1.86731e-06
0.000130161
-1.884e-06
0.00013059
-1.90395e-06
0.000131023
-1.92693e-06
0.000131462
-1.95251e-06
0.000131906
-1.98016e-06
0.000132357
-2.00923e-06
0.000132813
-2.0391e-06
0.000133277
-2.0691e-06
0.000133746
-2.09862e-06
0.000134221
-2.12707e-06
0.000134702
-2.15393e-06
0.000135189
-2.17871e-06
0.000135679
-2.201e-06
0.000136174
-2.2204e-06
0.000136672
-2.23659e-06
0.000137172
-2.24923e-06
0.000137674
-2.25804e-06
0.000138176
-2.26274e-06
0.000138678
-2.26306e-06
0.000139178
-2.25874e-06
0.000139676
-2.24948e-06
0.00014017
-2.23499e-06
0.00014066
-2.21497e-06
0.000141143
-2.18908e-06
0.000141618
-2.15693e-06
0.000142084
-2.11812e-06
0.00014254
-2.07219e-06
0.000142983
-2.0186e-06
0.000143412
-1.95677e-06
0.000143825
-1.88602e-06
0.00014422
-1.80558e-06
0.000144595
-1.71453e-06
0.000144947
-1.61185e-06
0.000145273
-1.49631e-06
0.000145572
-1.3665e-06
0.000145839
-1.22072e-06
0.000146071
-1.057e-06
0.000146265
-8.72952e-07
0.000146415
-6.6575e-07
0.000146519
-4.31972e-07
0.000146569
-1.67485e-07
0.000146561
1.3271e-07
0.000146488
4.74765e-07
0.000146343
8.66302e-07
0.00014612
1.31675e-06
0.000145811
1.83781e-06
0.000145409
2.44397e-06
0.000144909
3.1532e-06
0.000144309
3.98762e-06
0.000143612
4.97402e-06
0.000142834
6.14401e-06
0.000142006
7.53297e-06
0.000141189
9.17641e-06
0.000140486
1.1101e-05
0.000140052
1.33061e-05
0.000140095
1.57285e-05
0.000140815
1.81857e-05
2.03081e-05
0.000142211
0.000130641
-3.55967e-07
0.000130768
-6.72704e-07
0.000130948
-9.38631e-07
0.000131172
-1.16425e-06
0.000131433
-1.35749e-06
0.000131728
-1.52383e-06
0.00013205
-1.66708e-06
0.000132397
-1.79004e-06
0.000132764
-1.8948e-06
0.000133148
-1.98292e-06
0.000133546
-2.05571e-06
0.000133956
-2.11441e-06
0.000134375
-2.16032e-06
0.0001348
-2.19495e-06
0.00013523
-2.22002e-06
0.000135663
-2.23747e-06
0.000136098
-2.24938e-06
0.000136535
-2.25784e-06
0.000136972
-2.26486e-06
0.000137411
-2.27223e-06
0.000137851
-2.28143e-06
0.000138293
-2.29359e-06
0.000138737
-2.30942e-06
0.000139184
-2.32926e-06
0.000139636
-2.35313e-06
0.000140092
-2.38071e-06
0.000140553
-2.41151e-06
0.00014102
-2.44484e-06
0.000141493
-2.47995e-06
0.000141973
-2.51602e-06
0.000142458
-2.55227e-06
0.00014295
-2.58791e-06
0.000143448
-2.62223e-06
0.000143951
-2.65457e-06
0.000144459
-2.68435e-06
0.000144972
-2.71102e-06
0.000145488
-2.73412e-06
0.000146008
-2.75323e-06
0.000146529
-2.76795e-06
0.000147052
-2.77793e-06
0.000147574
-2.78282e-06
0.000148096
-2.78228e-06
0.000148616
-2.776e-06
0.000149133
-2.76363e-06
0.000149646
-2.74482e-06
0.000150153
-2.71918e-06
0.000150653
-2.68631e-06
0.000151144
-2.64577e-06
0.000151626
-2.59706e-06
0.000152096
-2.53964e-06
0.000152553
-2.47287e-06
0.000152995
-2.39607e-06
0.00015342
-2.30845e-06
0.000153826
-2.20908e-06
0.000154211
-2.09695e-06
0.000154572
-1.97085e-06
0.000154908
-1.82938e-06
0.000155215
-1.67094e-06
0.00015549
-1.49364e-06
0.000155731
-1.29527e-06
0.000155934
-1.07323e-06
0.000156095
-8.24424e-07
0.00015621
-5.45212e-07
0.000156277
-2.31256e-07
0.000156289
1.22565e-07
0.000156244
5.22364e-07
0.000156137
9.75522e-07
0.000155965
1.49088e-06
0.000155726
2.07896e-06
0.00015542
2.7522e-06
0.00015505
3.52515e-06
0.000154626
4.41445e-06
0.000154163
5.43851e-06
0.000153693
6.61656e-06
0.000153262
7.96641e-06
0.00015294
9.50024e-06
0.000152826
1.1217e-05
0.000153044
1.30898e-05
0.000153727
1.50473e-05
0.000154964
1.69509e-05
1.85818e-05
0.000156693
0.000139789
-4.23438e-07
0.000139923
-8.06148e-07
0.000140111
-1.12704e-06
0.000140347
-1.39976e-06
0.000140624
-1.63338e-06
0.000140935
-1.83441e-06
0.000141276
-2.00745e-06
0.000141643
-2.15591e-06
0.000142031
-2.28231e-06
0.000142438
-2.38858e-06
0.00014286
-2.47628e-06
0.000143293
-2.54692e-06
0.000143736
-2.60207e-06
0.000144187
-2.64356e-06
0.000144642
-2.67343e-06
0.0001451
-2.69404e-06
0.00014556
-2.70785e-06
0.000146021
-2.71741e-06
0.000146484
-2.72511e-06
0.000146947
-2.73312e-06
0.00014741
-2.74324e-06
0.000147876
-2.75682e-06
0.000148343
-2.77475e-06
0.000148814
-2.79745e-06
0.000149288
-2.82492e-06
0.000149767
-2.85685e-06
0.00015025
-2.89261e-06
0.000150739
-2.93141e-06
0.000151234
-2.97233e-06
0.000151735
-3.01442e-06
0.000152242
-3.05671e-06
0.000152756
-3.09827e-06
0.000153274
-3.13825e-06
0.000153798
-3.17584e-06
0.000154327
-3.21034e-06
0.00015486
-3.24112e-06
0.000155396
-3.26759e-06
0.000155935
-3.28925e-06
0.000156476
-3.30564e-06
0.000157017
-3.31632e-06
0.000157558
-3.32089e-06
0.000158098
-3.31895e-06
0.000158635
-3.31011e-06
0.000159168
-3.29397e-06
0.000159696
-3.27013e-06
0.000160218
-3.23814e-06
0.000160732
-3.19754e-06
0.000161237
-3.1478e-06
0.000161731
-3.08837e-06
0.000162213
-3.01862e-06
0.000162681
-2.93784e-06
0.000163133
-2.84527e-06
0.000163567
-2.74001e-06
0.000163982
-2.62105e-06
0.000164375
-2.48725e-06
0.000164744
-2.33731e-06
0.000165087
-2.16972e-06
0.000165402
-1.98275e-06
0.000165685
-1.77441e-06
0.000165935
-1.54239e-06
0.000166148
-1.284e-06
0.000166323
-9.96128e-07
0.000166455
-6.75152e-07
0.000166543
-3.16864e-07
0.000166585
8.35658e-08
0.000166578
5.31695e-07
0.000166522
1.03397e-06
0.000166417
1.59784e-06
0.000166267
2.23174e-06
0.000166077
2.94503e-06
0.000165856
3.74783e-06
0.000165622
4.6506e-06
0.0001654
5.66341e-06
0.000165224
6.79454e-06
0.000165144
8.04836e-06
0.000165225
9.42194e-06
0.000165544
1.09002e-05
0.000166187
1.24489e-05
0.000167229
1.40076e-05
0.000168699
1.54826e-05
1.67506e-05
0.000170533
0.000149578
-4.93404e-07
0.000149718
-9.45581e-07
0.000149915
-1.32467e-06
0.000150164
-1.64738e-06
0.000150455
-1.92396e-06
0.000150783
-2.16191e-06
0.000151143
-2.36665e-06
0.00015153
-2.54222e-06
0.00015194
-2.69162e-06
0.00015237
-2.81712e-06
0.000152816
-2.92062e-06
0.000153274
-3.00388e-06
0.000153742
-3.06877e-06
0.000154218
-3.11742e-06
0.000154698
-3.15226e-06
0.000155182
-3.17603e-06
0.000155668
-3.19164e-06
0.000156154
-3.20207e-06
0.000156641
-3.21016e-06
0.000157129
-3.21845e-06
0.000157617
-3.22908e-06
0.000158106
-3.24365e-06
0.000158597
-3.26322e-06
0.00015909
-3.28832e-06
0.000159587
-3.31898e-06
0.000160087
-3.35482e-06
0.000160593
-3.39515e-06
0.000161103
-3.43903e-06
0.000161619
-3.48541e-06
0.00016214
-3.53315e-06
0.000162668
-3.58114e-06
0.000163201
-3.62827e-06
0.000163739
-3.67353e-06
0.000164282
-3.716e-06
0.000164829
-3.75483e-06
0.000165381
-3.78927e-06
0.000165935
-3.81865e-06
0.000166491
-3.84237e-06
0.000167048
-3.85988e-06
0.000167606
-3.87068e-06
0.000168162
-3.8743e-06
0.000168717
-3.87029e-06
0.000169268
-3.85819e-06
0.000169814
-3.83756e-06
0.000170355
-3.80792e-06
0.000170889
-3.76879e-06
0.000171414
-3.71963e-06
0.000171929
-3.65988e-06
0.000172433
-3.58891e-06
0.000172923
-3.50605e-06
0.000173399
-3.41053e-06
0.000173858
-3.3015e-06
0.000174299
-3.17803e-06
0.00017472
-3.03903e-06
0.000175119
-2.88332e-06
0.000175495
-2.70954e-06
0.000175844
-2.51613e-06
0.000176165
-2.30136e-06
0.000176457
-2.06322e-06
0.000176717
-1.79946e-06
0.000176943
-1.50748e-06
0.000177134
-1.18436e-06
0.000177289
-8.26743e-07
0.000177405
-4.30885e-07
0.000177484
7.39754e-09
0.000177526
4.92717e-07
0.000177533
1.03002e-06
0.000177508
1.6249e-06
0.000177459
2.28321e-06
0.000177396
3.0109e-06
0.000177333
3.81364e-06
0.000177289
4.69628e-06
0.000177293
5.66202e-06
0.000177379
6.71122e-06
0.00017759
7.83983e-06
0.000177977
9.0373e-06
0.000178595
1.0284e-05
0.000179498
1.15486e-05
0.000180722
1.27858e-05
0.000182271
1.39363e-05
1.49324e-05
0.000184091
0.000160052
-5.65957e-07
0.000160198
-1.09099e-06
0.000160405
-1.53151e-06
0.000160665
-1.90711e-06
0.000160971
-2.22927e-06
0.000161317
-2.50642e-06
0.000161696
-2.74482e-06
0.000162103
-2.94917e-06
0.000162536
-3.12295e-06
0.000162989
-3.26883e-06
0.000163459
-3.38904e-06
0.000163942
-3.48562e-06
0.000164435
-3.56076e-06
0.000164937
-3.6169e-06
0.000165443
-3.65686e-06
0.000165953
-3.68379e-06
0.000166464
-3.70106e-06
0.000166976
-3.7121e-06
0.000167488
-3.7202e-06
0.000168001
-3.72832e-06
0.000168513
-3.73894e-06
0.000169026
-3.75394e-06
0.00016954
-3.77458e-06
0.000170055
-3.80149e-06
0.000170574
-3.83474e-06
0.000171096
-3.87392e-06
0.000171622
-3.91824e-06
0.000172152
-3.96666e-06
0.000172688
-4.01795e-06
0.000173228
-4.07082e-06
0.000173774
-4.12397e-06
0.000174325
-4.17615e-06
0.000174881
-4.22618e-06
0.000175441
-4.27298e-06
0.000176005
-4.31558e-06
0.000176572
-4.35311e-06
0.000177142
-4.38479e-06
0.000177712
-4.40993e-06
0.000178284
-4.4279e-06
0.000178855
-4.43812e-06
0.000179424
-4.44007e-06
0.00017999
-4.43322e-06
0.000180552
-4.41707e-06
0.000181109
-4.39113e-06
0.000181659
-4.35487e-06
0.000182202
-4.30776e-06
0.000182734
-4.24922e-06
0.000183256
-4.17866e-06
0.000183766
-4.0954e-06
0.000184262
-3.99873e-06
0.000184743
-3.88785e-06
0.000185206
-3.76188e-06
0.000185651
-3.61987e-06
0.000186076
-3.46072e-06
0.000186479
-3.28324e-06
0.000186859
-3.08609e-06
0.000187214
-2.86776e-06
0.000187542
-2.6266e-06
0.000187843
-2.36072e-06
0.000188114
-2.06805e-06
0.000188356
-1.74628e-06
0.000188568
-1.39284e-06
0.000188749
-1.00493e-06
0.0001889
-5.79469e-07
0.000189024
-1.13208e-07
0.000189122
3.97221e-07
0.0001892
9.55112e-07
0.000189264
1.56396e-06
0.000189323
2.22703e-06
0.000189389
2.94709e-06
0.00018948
3.72604e-06
0.000189614
4.56436e-06
0.000189818
5.46051e-06
0.000190122
6.4101e-06
0.000190559
7.40497e-06
0.000191167
8.43214e-06
0.000191981
9.47292e-06
0.00019303
1.05022e-05
0.00019433
1.14885e-05
0.000195873
1.23957e-05
1.3187e-05
0.00019762
0.00017126
-6.41163e-07
0.000171412
-1.24234e-06
0.000171628
-1.74752e-06
0.000171901
-2.17891e-06
0.000172221
-2.54927e-06
0.000172584
-2.86792e-06
0.000172982
-3.14198e-06
0.00017341
-3.37679e-06
0.000173865
-3.57637e-06
0.000174341
-3.74381e-06
0.000174835
-3.88166e-06
0.000175343
-3.99229e-06
0.000175863
-4.07819e-06
0.00017639
-4.14216e-06
0.000176922
-4.18739e-06
0.000177458
-4.21746e-06
0.000177995
-4.23622e-06
0.000178533
-4.24756e-06
0.00017907
-4.25524e-06
0.000179607
-4.26265e-06
0.000180143
-4.27264e-06
0.000180679
-4.28739e-06
0.000181216
-4.30836e-06
0.000181754
-4.33633e-06
0.000182293
-4.37141e-06
0.000182835
-4.41316e-06
0.000183381
-4.46073e-06
0.00018393
-4.51294e-06
0.000184484
-4.56842e-06
0.000185042
-4.6257e-06
0.000185605
-4.68332e-06
0.000186172
-4.73985e-06
0.000186743
-4.79394e-06
0.000187318
-4.84437e-06
0.000187896
-4.89002e-06
0.000188476
-4.92991e-06
0.000189058
-4.96313e-06
0.00018964
-4.98892e-06
0.000190222
-5.00655e-06
0.000190803
-5.01538e-06
0.000191381
-5.01481e-06
0.000191956
-5.00427e-06
0.000192526
-4.98322e-06
0.000193089
-4.9511e-06
0.000193645
-4.90736e-06
0.000194193
-4.85144e-06
0.00019473
-4.78273e-06
0.000195255
-4.70061e-06
0.000195768
-4.6044e-06
0.000196266
-4.49335e-06
0.000196748
-4.36669e-06
0.000197213
-4.22355e-06
0.00019766
-4.06297e-06
0.000198086
-3.88392e-06
0.000198492
-3.68526e-06
0.000198875
-3.46575e-06
0.000199234
-3.22401e-06
0.00019957
-2.95856e-06
0.00019988
-2.66777e-06
0.000200165
-2.34988e-06
0.000200425
-2.00298e-06
0.00020066
-1.62507e-06
0.000200873
-1.214e-06
0.000201064
-7.67584e-07
0.000201238
-2.83628e-07
0.000201398
2.3994e-07
0.000201551
8.04786e-07
0.000201706
1.41239e-06
0.000201872
2.06375e-06
0.000202063
2.75907e-06
0.000202295
3.49746e-06
0.000202585
4.27655e-06
0.000202956
5.09207e-06
0.000203432
5.93744e-06
0.000204036
6.80336e-06
0.000204794
7.67746e-06
0.000205725
8.54417e-06
0.000206845
9.38491e-06
0.000208158
1.01788e-05
0.000209652
1.09043e-05
1.15415e-05
0.0002113
0.000183253
-7.19064e-07
0.000183411
-1.39956e-06
0.000183636
-1.97258e-06
0.00018392
-2.46263e-06
0.000184256
-2.88378e-06
0.000184635
-3.24625e-06
0.000185052
-3.55796e-06
0.000185501
-3.82494e-06
0.000185978
-4.05176e-06
0.000186477
-4.24193e-06
0.000186995
-4.39838e-06
0.000187529
-4.52379e-06
0.000188073
-4.62098e-06
0.000188626
-4.6931e-06
0.000189184
-4.74375e-06
0.000189746
-4.77693e-06
0.000190309
-4.79697e-06
0.000190872
-4.80825e-06
0.000191435
-4.81501e-06
0.000191996
-4.82108e-06
0.000192555
-4.82971e-06
0.000193114
-4.84339e-06
0.000193673
-4.86383e-06
0.000194231
-4.89194e-06
0.000194791
-4.9279e-06
0.000195352
-4.97128e-06
0.000195916
-5.02115e-06
0.000196482
-5.07621e-06
0.000197052
-5.13494e-06
0.000197626
-5.19573e-06
0.000198203
-5.25692e-06
0.000198784
-5.31691e-06
0.000199367
-5.37418e-06
0.000199954
-5.42736e-06
0.000200543
-5.47518e-06
0.000201133
-5.51652e-06
0.000201724
-5.5504e-06
0.000202315
-5.57593e-06
0.000202904
-5.5923e-06
0.000203492
-5.59881e-06
0.000204076
-5.5948e-06
0.000204655
-5.57965e-06
0.000205228
-5.55277e-06
0.000205794
-5.51358e-06
0.000206352
-5.46151e-06
0.000206901
-5.39597e-06
0.000207438
-5.31636e-06
0.000207963
-5.22203e-06
0.000208475
-5.11234e-06
0.000208972
-4.98656e-06
0.000209453
-4.84393e-06
0.000209917
-4.68365e-06
0.000210362
-4.50484e-06
0.000210789
-4.30655e-06
0.000211195
-4.08778e-06
0.00021158
-3.84746e-06
0.000211944
-3.58441e-06
0.000212287
-3.29743e-06
0.000212608
-2.98522e-06
0.000212908
-2.64644e-06
0.000213188
-2.27972e-06
0.00021345
-1.88368e-06
0.000213696
-1.45695e-06
0.00021393
-9.98282e-07
0.000214157
-5.06547e-07
0.000214381
1.91637e-08
0.00021461
5.79139e-07
0.000214852
1.17305e-06
0.000215119
1.80018e-06
0.000215422
2.45897e-06
0.000215776
3.14675e-06
0.000216196
3.85963e-06
0.000216699
4.5922e-06
0.000217302
5.33745e-06
0.000218022
6.08663e-06
0.000218873
6.82932e-06
0.000219866
7.55354e-06
0.000221008
8.24624e-06
0.000222296
8.89396e-06
0.000223719
9.48393e-06
1.00056e-05
0.000225258
0.000196086
-7.99664e-07
0.000196249
-1.56253e-06
0.000196483
-2.20648e-06
0.000196779
-2.75801e-06
0.000197129
-3.23251e-06
0.000197524
-3.64105e-06
0.00019796
-3.99238e-06
0.000198429
-4.29322e-06
0.000198928
-4.5487e-06
0.00019945
-4.76279e-06
0.000199992
-4.93876e-06
0.00020055
-5.07968e-06
0.000201119
-5.18869e-06
0.000201698
-5.26929e-06
0.000202282
-5.32548e-06
0.000202869
-5.36171e-06
0.000203457
-5.38279e-06
0.000204045
-5.3936e-06
0.000204632
-5.39886e-06
0.000205216
-5.40288e-06
0.000205799
-5.4093e-06
0.000206379
-5.42097e-06
0.000206958
-5.43985e-06
0.000207537
-5.46702e-06
0.000208115
-5.50275e-06
0.000208694
-5.54661e-06
0.000209274
-5.59762e-06
0.000209855
-5.65439e-06
0.000210439
-5.71526e-06
0.000211026
-5.77843e-06
0.000211615
-5.84208e-06
0.000212206
-5.90444e-06
0.000212799
-5.96383e-06
0.000213395
-6.01868e-06
0.000213991
-6.06762e-06
0.000214588
-6.10939e-06
0.000215184
-6.14287e-06
0.000215779
-6.1671e-06
0.000216372
-6.18119e-06
0.000216962
-6.18436e-06
0.000217547
-6.17591e-06
0.000218127
-6.15516e-06
0.0002187
-6.12152e-06
0.000219264
-6.07437e-06
0.00021982
-6.01314e-06
0.000220366
-5.93723e-06
0.000220899
-5.84607e-06
0.00022142
-5.73905e-06
0.000221928
-5.61553e-06
0.00022242
-5.47487e-06
0.000222896
-5.31637e-06
0.000223356
-5.13933e-06
0.000223798
-4.94299e-06
0.000224222
-4.72656e-06
0.000224628
-4.48922e-06
0.000225014
-4.23012e-06
0.000225382
-3.94839e-06
0.000225731
-3.64314e-06
0.000226064
-3.3135e-06
0.000226379
-2.9586e-06
0.000226681
-2.57765e-06
0.000226971
-2.16993e-06
0.000227253
-1.73486e-06
0.00022753
-1.27205e-06
0.000227808
-7.81352e-07
0.000228094
-2.62925e-07
0.000228394
2.82582e-07
0.000228717
8.53598e-07
0.000229073
1.44815e-06
0.000229471
2.06359e-06
0.000229925
2.69642e-06
0.000230446
3.34217e-06
0.000231046
3.99541e-06
0.000231737
4.64966e-06
0.000232529
5.29753e-06
0.000233431
5.93083e-06
0.000234447
6.54082e-06
0.000235578
7.11864e-06
0.000236819
7.65576e-06
0.000238161
8.14472e-06
8.58004e-06
0.00023959
0.000209817
-8.82904e-07
0.000209986
-1.73103e-06
0.000210229
-2.4489e-06
0.000210536
-3.06461e-06
0.000210899
-3.59491e-06
0.000211311
-4.05174e-06
0.000211764
-4.4446e-06
0.000212253
-4.78095e-06
0.000212772
-5.06646e-06
0.000213317
-5.3056e-06
0.000213882
-5.50203e-06
0.000214463
-5.65915e-06
0.000215057
-5.78046e-06
0.00021566
-5.86983e-06
0.000216268
-5.93167e-06
0.00021688
-5.97086e-06
0.000217492
-5.99269e-06
0.000218104
-6.00255e-06
0.000218714
-6.00566e-06
0.000219321
-6.00681e-06
0.000219925
-6.01008e-06
0.000220526
-6.01866e-06
0.000221124
-6.0348e-06
0.00022172
-6.05978e-06
0.000222315
-6.09397e-06
0.000222909
-6.13698e-06
0.000223503
-6.18779e-06
0.000224097
-6.24492e-06
0.000224692
-6.30657e-06
0.000225289
-6.3708e-06
0.000225886
-6.43562e-06
0.000226485
-6.49907e-06
0.000227084
-6.5593e-06
0.000227685
-6.61461e-06
0.000228285
-6.66344e-06
0.000228884
-6.70442e-06
0.000229482
-6.73634e-06
0.000230077
-6.75811e-06
0.000230669
-6.76879e-06
0.000231256
-6.76752e-06
0.000231838
-6.75357e-06
0.000232414
-6.72623e-06
0.000232982
-6.68488e-06
0.00023354
-6.62891e-06
0.000234089
-6.55775e-06
0.000234627
-6.47084e-06
0.000235153
-6.36764e-06
0.000235666
-6.24758e-06
0.000236165
-6.11012e-06
0.000236649
-5.95469e-06
0.000237118
-5.78073e-06
0.000237571
-5.58764e-06
0.000238007
-5.37485e-06
0.000238426
-5.14177e-06
0.000238829
-4.88781e-06
0.000239215
-4.6124e-06
0.000239586
-4.315e-06
0.000239942
-3.99511e-06
0.000240285
-3.65227e-06
0.000240617
-3.28614e-06
0.000240939
-2.89649e-06
0.000241257
-2.48323e-06
0.000241572
-2.04648e-06
0.000241891
-1.58661e-06
0.000242218
-1.10428e-06
0.000242559
-6.00465e-07
0.000242922
-7.64229e-08
0.000243313
4.65734e-07
0.000243742
1.0231e-06
0.000244217
1.59256e-06
0.000244746
2.17042e-06
0.00024534
2.75233e-06
0.000246005
3.33336e-06
0.000246751
3.90806e-06
0.000247581
4.47056e-06
0.000248501
5.01474e-06
0.00024951
5.53444e-06
0.000250609
6.02377e-06
0.00025179
6.47742e-06
0.000253047
6.8911e-06
7.26211e-06
0.000254368
0.00022451
-9.68671e-07
0.000224684
-1.90476e-06
0.000224934
-2.69934e-06
0.000225252
-3.3818e-06
0.000225628
-3.97023e-06
0.000226055
-4.47742e-06
0.000226525
-4.91364e-06
0.000227033
-5.28705e-06
0.000227572
-5.60391e-06
0.000228137
-5.86916e-06
0.000228724
-6.08689e-06
0.000229328
-6.26086e-06
0.000229944
-6.39492e-06
0.00023057
-6.4933e-06
0.000231202
-6.56082e-06
0.000231836
-6.60282e-06
0.000232472
-6.62505e-06
0.000233105
-6.63341e-06
0.000233736
-6.63365e-06
0.000234364
-6.63102e-06
0.000234987
-6.63006e-06
0.000235606
-6.63434e-06
0.000236222
-6.64642e-06
0.000236833
-6.66779e-06
0.000237442
-6.69897e-06
0.000238049
-6.73961e-06
0.000238654
-6.78868e-06
0.000239257
-6.84461e-06
0.00023986
-6.90551e-06
0.000240463
-6.96928e-06
0.000241065
-7.03376e-06
0.000241668
-7.09683e-06
0.000242269
-7.15646e-06
0.00024287
-7.2108e-06
0.000243469
-7.25815e-06
0.000244066
-7.29701e-06
0.00024466
-7.32605e-06
0.000245251
-7.34411e-06
0.000245837
-7.35016e-06
0.000246418
-7.34331e-06
0.000246991
-7.32277e-06
0.000247558
-7.28783e-06
0.000248115
-7.23786e-06
0.000248663
-7.17226e-06
0.000249201
-7.09051e-06
0.000249727
-6.99209e-06
0.00025024
-6.87652e-06
0.000250741
-6.74331e-06
0.000251227
-6.59203e-06
0.0002517
-6.42223e-06
0.000252157
-6.23349e-06
0.000252599
-6.0254e-06
0.000253027
-5.79758e-06
0.000253439
-5.54968e-06
0.000253837
-5.28138e-06
0.000254222
-4.99242e-06
0.000254594
-4.6826e-06
0.000254955
-4.35181e-06
0.000255307
-4.00003e-06
0.000255653
-3.62739e-06
0.000255995
-3.23417e-06
0.000256336
-2.82083e-06
0.000256682
-2.38807e-06
0.000257037
-1.93684e-06
0.000257405
-1.46836e-06
0.000257793
-9.84173e-07
0.000258207
-4.86107e-07
0.000258653
2.37861e-08
0.000259137
5.42521e-07
0.000259667
1.06658e-06
0.000260249
1.59247e-06
0.000260889
2.11632e-06
0.000261592
2.63398e-06
0.000262363
3.14109e-06
0.000263204
3.63319e-06
0.000264117
4.10586e-06
0.0002651
4.55488e-06
0.000266151
4.97639e-06
0.000267265
5.36715e-06
0.000268435
5.72472e-06
6.04795e-06
0.000269652
0.000240231
-1.05677e-06
0.00024041
-2.08329e-06
0.000240668
-2.95712e-06
0.000240995
-3.70871e-06
0.000241383
-4.3574e-06
0.000241824
-4.91687e-06
0.00024231
-5.39813e-06
0.000242834
-5.81002e-06
0.000243391
-6.15941e-06
0.000243976
-6.45174e-06
0.000244582
-6.69151e-06
0.000245207
-6.88287e-06
0.000245844
-7.03002e-06
0.000246491
-7.13757e-06
0.000247143
-7.21074e-06
0.000247799
-7.2553e-06
0.000248454
-7.2775e-06
0.000249108
-7.28373e-06
0.000249758
-7.28025e-06
0.000250403
-7.27283e-06
0.000251043
-7.26646e-06
0.000251677
-7.26512e-06
0.000252306
-7.27168e-06
0.00025293
-7.28789e-06
0.00025355
-7.31441e-06
0.000254165
-7.35099e-06
0.000254778
-7.39659e-06
0.000255387
-7.4496e-06
0.000255994
-7.50801e-06
0.000256599
-7.5696e-06
0.000257202
-7.63205e-06
0.000257803
-7.69307e-06
0.000258401
-7.75049e-06
0.000258998
-7.80229e-06
0.000259591
-7.84664e-06
0.000260181
-7.88191e-06
0.000260766
-7.90667e-06
0.000261347
-7.91967e-06
0.000261921
-7.91983e-06
0.000262489
-7.90621e-06
0.000263049
-7.87799e-06
0.000263601
-7.83447e-06
0.000264143
-7.77503e-06
0.000264675
-7.69911e-06
0.000265196
-7.60622e-06
0.000265705
-7.49594e-06
0.000266201
-7.36784e-06
0.000266684
-7.22159e-06