/*--------------------------------*- C++ -*----------------------------------*\
| =========                 |                                                 |
| \\      /  F ield         | OpenFOAM: The Open Source CFD Toolbox           |
|  \\    /   O peration     | Version:  2106                                  |
|   \\  /    A nd           | Website:  www.openfoam.com                      |
|    \\/     M anipulation  |                                                 |
\*---------------------------------------------------------------------------*/
FoamFile
{
    version     2.0;
    format      ascii;
    arch        "LSB;label=32;scalar=64";
    class       volScalarField;
    location    "2.2";
    object      T;
}
// * * * * * * * * * * * * * * * * * * * * * * * * * * * * * * * * * * * * * //

dimensions      [0 0 0 1 0 0 0];

internalField   nonuniform List<scalar> 
12013
(
300.001
300.004
300.008
300.011
300.015
300.018
300.022
300.027
300.031
300.036
300.042
300.047
300.053
300.06
300.067
300.074
300.082
300.09
300.099
300.108
300.118
300.129
300.14
300.151
300.164
300.177
300.19
300.205
300.22
300.236
300.252
300.269
300.288
300.306
300.326
300.346
300.368
300.39
300.413
300.436
300.461
300.487
300.513
300.541
300.569
300.598
300.628
300.66
300.692
300.725
300.76
300.795
300.832
300.869
300.908
300.948
300.99
301.032
301.076
301.121
301.167
301.215
301.265
301.316
301.369
301.423
301.48
301.538
301.599
301.662
301.727
301.795
301.867
301.942
302.021
302.105
302.195
302.293
302.4
302.522
302.668
300.001
300.004
300.008
300.011
300.015
300.018
300.022
300.027
300.031
300.036
300.042
300.047
300.053
300.06
300.067
300.074
300.082
300.09
300.099
300.108
300.118
300.129
300.14
300.151
300.164
300.177
300.19
300.205
300.22
300.236
300.252
300.269
300.287
300.306
300.326
300.346
300.368
300.39
300.413
300.436
300.461
300.487
300.513
300.54
300.569
300.598
300.628
300.66
300.692
300.725
300.76
300.795
300.832
300.869
300.908
300.948
300.989
301.032
301.075
301.12
301.167
301.215
301.264
301.315
301.368
301.422
301.479
301.537
301.597
301.66
301.725
301.793
301.864
301.939
302.017
302.101
302.189
302.284
302.388
302.501
302.626
300.001
300.004
300.008
300.011
300.015
300.018
300.022
300.027
300.031
300.036
300.042
300.047
300.053
300.06
300.067
300.074
300.082
300.09
300.099
300.108
300.118
300.129
300.14
300.151
300.164
300.177
300.19
300.205
300.22
300.236
300.252
300.269
300.287
300.306
300.326
300.346
300.367
300.389
300.412
300.436
300.461
300.486
300.513
300.54
300.568
300.598
300.628
300.659
300.692
300.725
300.759
300.794
300.831
300.869
300.907
300.947
300.988
301.031
301.074
301.119
301.166
301.214
301.263
301.314
301.366
301.42
301.477
301.534
301.595
301.657
301.721
301.789
301.859
301.932
302.009
302.091
302.176
302.267
302.363
302.465
302.572
300.001
300.004
300.008
300.011
300.015
300.018
300.022
300.027
300.031
300.036
300.042
300.047
300.053
300.06
300.066
300.074
300.082
300.09
300.099
300.108
300.118
300.129
300.14
300.151
300.164
300.177
300.19
300.205
300.22
300.235
300.252
300.269
300.287
300.306
300.326
300.346
300.367
300.389
300.412
300.436
300.46
300.486
300.512
300.54
300.568
300.597
300.628
300.659
300.691
300.724
300.758
300.794
300.83
300.868
300.906
300.946
300.987
301.029
301.073
301.118
301.164
301.212
301.261
301.311
301.363
301.417
301.473
301.53
301.59
301.651
301.715
301.781
301.85
301.922
301.997
302.075
302.157
302.242
302.331
302.422
302.514
300.001
300.004
300.008
300.011
300.015
300.018
300.022
300.027
300.031
300.036
300.041
300.047
300.053
300.06
300.066
300.074
300.082
300.09
300.099
300.108
300.118
300.128
300.14
300.151
300.164
300.177
300.19
300.205
300.22
300.235
300.252
300.269
300.287
300.306
300.325
300.346
300.367
300.389
300.412
300.435
300.46
300.486
300.512
300.539
300.567
300.597
300.627
300.658
300.69
300.723
300.757
300.793
300.829
300.866
300.905
300.944
300.985
301.027
301.071
301.115
301.161
301.209
301.257
301.307
301.359
301.413
301.468
301.524
301.583
301.643
301.706
301.771
301.838
301.908
301.98
302.054
302.131
302.211
302.292
302.374
302.455
300.001
300.004
300.008
300.011
300.015
300.018
300.022
300.027
300.031
300.036
300.041
300.047
300.053
300.06
300.066
300.074
300.081
300.09
300.099
300.108
300.118
300.128
300.139
300.151
300.163
300.176
300.19
300.204
300.219
300.235
300.252
300.269
300.287
300.305
300.325
300.345
300.366
300.388
300.411
300.435
300.459
300.485
300.511
300.538
300.567
300.596
300.626
300.657
300.689
300.722
300.756
300.791
300.827
300.864
300.903
300.942
300.983
301.025
301.068
301.112
301.158
301.204
301.253
301.302
301.353
301.406
301.46
301.516
301.574
301.633
301.694
301.757
301.822
301.889
301.958
302.028
302.1
302.174
302.248
302.322
302.395
300.001
300.004
300.008
300.011
300.015
300.018
300.022
300.027
300.031
300.036
300.041
300.047
300.053
300.059
300.066
300.074
300.081
300.09
300.098
300.108
300.118
300.128
300.139
300.151
300.163
300.176
300.19
300.204
300.219
300.235
300.251
300.268
300.286
300.305
300.324
300.345
300.366
300.388
300.41
300.434
300.459
300.484
300.51
300.537
300.565
300.594
300.624
300.655
300.687
300.72
300.754
300.789
300.825
300.862
300.9
300.939
300.979
301.021
301.064
301.107
301.153
301.199
301.247
301.296
301.346
301.398
301.451
301.506
301.562
301.62
301.679
301.74
301.802
301.866
301.931
301.998
302.065
302.133
302.201
302.269
302.335
300.001
300.004
300.008
300.011
300.015
300.018
300.022
300.027
300.031
300.036
300.041
300.047
300.053
300.059
300.066
300.074
300.081
300.09
300.098
300.108
300.118
300.128
300.139
300.151
300.163
300.176
300.189
300.204
300.219
300.234
300.251
300.268
300.286
300.304
300.324
300.344
300.365
300.387
300.41
300.433
300.458
300.483
300.509
300.536
300.564
300.593
300.623
300.653
300.685
300.718
300.751
300.786
300.822
300.859
300.896
300.935
300.975
301.016
301.058
301.102
301.146
301.192
301.239
301.287
301.337
301.387
301.439
301.493
301.547
301.603
301.66
301.719
301.779
301.839
301.901
301.963
302.026
302.089
302.151
302.213
302.274
300.001
300.004
300.008
300.011
300.015
300.018
300.022
300.027
300.031
300.036
300.041
300.047
300.053
300.059
300.066
300.073
300.081
300.089
300.098
300.107
300.117
300.128
300.139
300.15
300.163
300.175
300.189
300.203
300.218
300.234
300.25
300.267
300.285
300.304
300.323
300.343
300.364
300.386
300.408
300.432
300.456
300.481
300.507
300.534
300.562
300.591
300.62
300.651
300.682
300.715
300.748
300.783
300.818
300.854
300.892
300.93
300.97
301.01
301.052
301.095
301.139
301.184
301.23
301.277
301.325
301.375
301.425
301.477
301.53
301.584
301.639
301.694
301.751
301.809
301.867
301.925
301.983
302.042
302.099
302.156
302.212
300.001
300.004
300.008
300.011
300.014
300.018
300.022
300.027
300.031
300.036
300.041
300.047
300.053
300.059
300.066
300.073
300.081
300.089
300.098
300.107
300.117
300.127
300.138
300.15
300.162
300.175
300.189
300.203
300.218
300.233
300.249
300.266
300.284
300.303
300.322
300.342
300.363
300.385
300.407
300.43
300.454
300.479
300.505
300.532
300.56
300.588
300.618
300.648
300.679
300.711
300.744
300.778
300.813
300.849
300.886
300.924
300.963
301.003
301.044
301.086
301.129
301.173
301.218
301.264
301.311
301.359
301.408
301.458
301.509
301.561
301.613
301.667
301.72
301.774
301.829
301.883
301.938
301.992
302.045
302.098
302.149
300.001
300.004
300.008
300.011
300.014
300.018
300.022
300.026
300.031
300.036
300.041
300.047
300.053
300.059
300.066
300.073
300.081
300.089
300.098
300.107
300.117
300.127
300.138
300.15
300.162
300.174
300.188
300.202
300.217
300.232
300.249
300.265
300.283
300.302
300.321
300.341
300.361
300.383
300.405
300.428
300.452
300.477
300.503
300.529
300.557
300.585
300.614
300.644
300.675
300.707
300.74
300.773
300.808
300.843
300.88
300.917
300.955
300.995
301.035
301.076
301.118
301.161
301.205
301.249
301.295
301.342
301.389
301.437
301.486
301.535
301.585
301.635
301.686
301.737
301.788
301.839
301.89
301.94
301.989
302.038
302.085
300.001
300.004
300.008
300.011
300.014
300.018
300.022
300.026
300.031
300.036
300.041
300.047
300.052
300.059
300.066
300.073
300.08
300.089
300.097
300.107
300.116
300.127
300.137
300.149
300.161
300.174
300.187
300.201
300.216
300.231
300.247
300.264
300.282
300.3
300.319
300.339
300.36
300.381
300.403
300.426
300.45
300.475
300.5
300.526
300.553
300.581
300.61
300.64
300.67
300.702
300.734
300.767
300.801
300.836
300.872
300.908
300.946
300.984
301.024
301.064
301.105
301.146
301.189
301.232
301.276
301.321
301.366
301.412
301.459
301.506
301.553
301.601
301.649
301.697
301.744
301.792
301.839
301.886
301.931
301.976
302.021
300.001
300.004
300.008
300.011
300.014
300.018
300.022
300.026
300.031
300.036
300.041
300.046
300.052
300.059
300.065
300.073
300.08
300.088
300.097
300.106
300.116
300.126
300.137
300.148
300.16
300.173
300.186
300.2
300.215
300.23
300.246
300.263
300.28
300.298
300.317
300.337
300.357
300.379
300.401
300.423
300.447
300.471
300.496
300.522
300.549
300.577
300.605
300.634
300.664
300.695
300.727
300.76
300.793
300.827
300.862
300.898
300.935
300.972
301.01
301.049
301.089
301.13
301.171
301.212
301.255
301.298
301.341
301.385
301.429
301.474
301.519
301.564
301.608
301.653
301.698
301.742
301.786
301.829
301.872
301.914
301.955
300.001
300.004
300.008
300.011
300.014
300.018
300.022
300.026
300.031
300.035
300.041
300.046
300.052
300.058
300.065
300.072
300.08
300.088
300.096
300.106
300.115
300.125
300.136
300.147
300.159
300.172
300.185
300.199
300.214
300.229
300.245
300.261
300.279
300.297
300.315
300.335
300.355
300.376
300.398
300.42
300.443
300.467
300.492
300.518
300.544
300.571
300.599
300.628
300.658
300.688
300.719
300.751
300.784
300.817
300.851
300.886
300.922
300.958
300.995
301.033
301.071
301.11
301.15
301.19
301.231
301.272
301.313
301.355
301.397
301.439
301.481
301.523
301.565
301.607
301.649
301.69
301.731
301.771
301.811
301.85
301.888
300.001
300.004
300.007
300.011
300.014
300.018
300.022
300.026
300.031
300.035
300.04
300.046
300.052
300.058
300.065
300.072
300.079
300.087
300.096
300.105
300.114
300.125
300.135
300.147
300.158
300.171
300.184
300.198
300.212
300.227
300.243
300.259
300.276
300.294
300.313
300.332
300.352
300.373
300.394
300.416
300.439
300.463
300.487
300.512
300.538
300.565
300.593
300.621
300.65
300.679
300.71
300.741
300.773
300.805
300.839
300.873
300.907
300.942
300.978
301.015
301.051
301.089
301.127
301.165
301.204
301.243
301.282
301.322
301.361
301.401
301.441
301.48
301.52
301.559
301.598
301.636
301.674
301.712
301.749
301.785
301.821
300.001
300.004
300.007
300.011
300.014
300.018
300.022
300.026
300.03
300.035
300.04
300.046
300.051
300.058
300.064
300.071
300.079
300.087
300.095
300.104
300.114
300.124
300.134
300.145
300.157
300.169
300.182
300.196
300.21
300.225
300.241
300.257
300.274
300.291
300.31
300.329
300.348
300.369
300.39
300.412
300.434
300.457
300.481
300.506
300.532
300.558
300.585
300.612
300.641
300.669
300.699
300.729
300.76
300.792
300.824
300.857
300.89
300.924
300.959
300.994
301.029
301.065
301.101
301.138
301.174
301.211
301.248
301.286
301.323
301.36
301.398
301.435
301.472
301.508
301.544
301.58
301.616
301.651
301.685
301.719
301.752
300.001
300.004
300.007
300.011
300.014
300.018
300.022
300.026
300.03
300.035
300.04
300.045
300.051
300.057
300.064
300.071
300.078
300.086
300.094
300.103
300.113
300.123
300.133
300.144
300.156
300.168
300.181
300.194
300.208
300.223
300.238
300.254
300.271
300.288
300.306
300.325
300.344
300.364
300.385
300.406
300.428
300.451
300.475
300.499
300.524
300.549
300.576
300.602
300.63
300.658
300.687
300.716
300.746
300.777
300.808
300.839
300.872
300.904
300.937
300.97
301.004
301.038
301.073
301.107
301.142
301.177
301.212
301.247
301.282
301.317
301.352
301.387
301.421
301.455
301.489
301.522
301.555
301.588
301.62
301.651
301.682
300.001
300.004
300.007
300.011
300.014
300.018
300.021
300.025
300.03
300.034
300.039
300.045
300.051
300.057
300.063
300.07
300.077
300.085
300.093
300.102
300.111
300.121
300.132
300.143
300.154
300.166
300.179
300.192
300.206
300.22
300.235
300.251
300.267
300.284
300.302
300.32
300.339
300.359
300.379
300.4
300.422
300.444
300.467
300.491
300.515
300.54
300.565
300.591
300.618
300.645
300.673
300.701
300.73
300.76
300.789
300.82
300.85
300.882
300.913
300.945
300.977
301.009
301.042
301.075
301.107
301.14
301.173
301.206
301.239
301.272
301.304
301.337
301.369
301.4
301.432
301.463
301.494
301.524
301.553
301.583
301.611
300.001
300.004
300.007
300.01
300.014
300.017
300.021
300.025
300.03
300.034
300.039
300.044
300.05
300.056
300.062
300.069
300.076
300.084
300.092
300.101
300.11
300.12
300.13
300.141
300.152
300.164
300.176
300.189
300.203
300.217
300.232
300.247
300.263
300.28
300.297
300.315
300.334
300.353
300.373
300.393
300.414
300.436
300.458
300.481
300.505
300.529
300.553
300.579
300.604
300.631
300.657
300.685
300.712
300.74
300.769
300.798
300.827
300.857
300.887
300.917
300.947
300.978
301.009
301.039
301.07
301.101
301.132
301.163
301.193
301.224
301.254
301.284
301.314
301.344
301.373
301.402
301.43
301.458
301.486
301.513
301.539
300.001
300.004
300.007
300.01
300.014
300.017
300.021
300.025
300.029
300.034
300.039
300.044
300.049
300.055
300.062
300.068
300.075
300.083
300.091
300.1
300.109
300.118
300.128
300.139
300.15
300.161
300.173
300.186
300.2
300.213
300.228
300.243
300.259
300.275
300.292
300.309
300.327
300.346
300.365
300.385
300.406
300.427
300.448
300.47
300.493
300.516
300.54
300.564
300.589
300.614
300.64
300.666
300.692
300.719
300.747
300.774
300.802
300.83
300.858
300.887
300.915
300.944
300.973
301.002
301.031
301.06
301.088
301.117
301.146
301.174
301.202
301.23
301.258
301.285
301.312
301.339
301.365
301.391
301.417
301.442
301.467
300.001
300.004
300.007
300.01
300.013
300.017
300.021
300.025
300.029
300.033
300.038
300.043
300.049
300.054
300.061
300.067
300.074
300.082
300.09
300.098
300.107
300.116
300.126
300.136
300.147
300.158
300.17
300.183
300.196
300.209
300.224
300.238
300.253
300.269
300.286
300.303
300.32
300.338
300.357
300.376
300.396
300.416
300.437
300.458
300.48
300.503
300.525
300.549
300.572
300.596
300.621
300.646
300.671
300.696
300.722
300.748
300.774
300.801
300.827
300.854
300.881
300.908
300.935
300.962
300.989
301.016
301.043
301.069
301.096
301.122
301.148
301.174
301.2
301.225
301.25
301.275
301.299
301.324
301.347
301.37
301.393
300.001
300.004
300.007
300.01
300.013
300.017
300.02
300.024
300.028
300.033
300.037
300.042
300.048
300.053
300.06
300.066
300.073
300.08
300.088
300.096
300.105
300.114
300.123
300.133
300.144
300.155
300.167
300.179
300.192
300.205
300.218
300.233
300.248
300.263
300.279
300.295
300.312
300.33
300.348
300.366
300.385
300.405
300.425
300.445
300.466
300.487
300.509
300.531
300.554
300.577
300.6
300.623
300.647
300.671
300.695
300.72
300.745
300.769
300.794
300.82
300.845
300.87
300.895
300.92
300.945
300.97
300.995
301.02
301.044
301.069
301.093
301.117
301.141
301.164
301.187
301.21
301.232
301.255
301.276
301.298
301.319
300.001
300.004
300.007
300.01
300.013
300.016
300.02
300.024
300.028
300.032
300.037
300.042
300.047
300.052
300.058
300.065
300.071
300.078
300.086
300.094
300.102
300.111
300.121
300.13
300.141
300.151
300.163
300.174
300.187
300.2
300.213
300.227
300.241
300.256
300.271
300.287
300.303
300.32
300.337
300.355
300.373
300.392
300.411
300.43
300.45
300.47
300.491
300.512
300.533
300.555
300.577
300.599
300.621
300.644
300.667
300.69
300.713
300.736
300.76
300.783
300.806
300.83
300.853
300.876
300.9
300.923
300.946
300.968
300.991
301.014
301.036
301.058
301.08
301.101
301.123
301.144
301.165
301.185
301.205
301.225
301.244
300.001
300.004
300.007
300.01
300.013
300.016
300.019
300.023
300.027
300.031
300.036
300.041
300.046
300.051
300.057
300.063
300.07
300.077
300.084
300.092
300.1
300.108
300.117
300.127
300.137
300.147
300.158
300.169
300.181
300.194
300.206
300.22
300.233
300.248
300.262
300.277
300.293
300.309
300.326
300.342
300.36
300.377
300.396
300.414
300.433
300.452
300.472
300.491
300.511
300.532
300.552
300.573
300.594
300.615
300.637
300.658
300.679
300.701
300.723
300.744
300.766
300.788
300.809
300.831
300.852
300.874
300.895
300.916
300.937
300.957
300.978
300.998
301.018
301.038
301.058
301.077
301.096
301.115
301.133
301.151
301.169
300.001
300.004
300.006
300.009
300.012
300.016
300.019
300.023
300.026
300.03
300.035
300.04
300.044
300.05
300.055
300.061
300.068
300.074
300.081
300.089
300.097
300.105
300.114
300.123
300.133
300.143
300.153
300.164
300.175
300.187
300.199
300.212
300.225
300.239
300.253
300.267
300.282
300.297
300.313
300.329
300.345
300.362
300.379
300.396
300.414
300.432
300.451
300.469
300.488
300.507
300.526
300.545
300.565
300.585
300.604
300.624
300.644
300.664
300.684
300.704
300.724
300.744
300.764
300.784
300.803
300.823
300.842
300.862
300.881
300.9
300.919
300.937
300.956
300.974
300.992
301.009
301.027
301.044
301.061
301.077
301.094
300.001
300.004
300.006
300.009
300.012
300.015
300.018
300.022
300.026
300.03
300.034
300.038
300.043
300.048
300.054
300.059
300.065
300.072
300.079
300.086
300.094
300.101
300.11
300.119
300.128
300.137
300.147
300.158
300.169
300.18
300.192
300.204
300.216
300.229
300.242
300.256
300.27
300.284
300.299
300.314
300.329
300.345
300.361
300.378
300.394
300.411
300.428
300.445
300.463
300.48
300.498
300.516
300.534
300.553
300.571
300.589
300.607
300.626
300.644
300.663
300.681
300.699
300.717
300.735
300.754
300.771
300.789
300.807
300.824
300.842
300.859
300.876
300.892
300.909
300.925
300.941
300.957
300.973
300.988
301.003
301.018
300.001
300.004
300.006
300.009
300.012
300.015
300.018
300.021
300.025
300.029
300.033
300.037
300.042
300.046
300.052
300.057
300.063
300.069
300.076
300.083
300.09
300.097
300.105
300.114
300.123
300.132
300.141
300.151
300.161
300.172
300.183
300.194
300.206
300.218
300.231
300.244
300.257
300.27
300.284
300.298
300.313
300.327
300.342
300.357
300.373
300.388
300.404
300.42
300.436
300.453
300.469
300.486
300.502
300.519
300.536
300.553
300.569
300.586
300.603
300.62
300.637
300.653
300.67
300.686
300.703
300.719
300.735
300.751
300.767
300.783
300.798
300.814
300.829
300.844
300.859
300.873
300.888
300.902
300.916
300.929
300.943
300.001
300.003
300.006
300.008
300.011
300.014
300.017
300.02
300.024
300.027
300.031
300.035
300.04
300.045
300.05
300.055
300.06
300.066
300.072
300.079
300.086
300.093
300.101
300.109
300.117
300.125
300.134
300.144
300.153
300.163
300.174
300.184
300.196
300.207
300.219
300.231
300.243
300.255
300.268
300.281
300.295
300.308
300.322
300.336
300.35
300.365
300.379
300.394
300.409
300.424
300.439
300.454
300.469
300.484
300.5
300.515
300.53
300.546
300.561
300.576
300.591
300.606
300.621
300.636
300.651
300.666
300.681
300.695
300.709
300.724
300.738
300.751
300.765
300.779
300.792
300.805
300.818
300.831
300.844
300.856
300.868
300.001
300.003
300.006
300.008
300.011
300.013
300.016
300.019
300.023
300.026
300.03
300.034
300.038
300.042
300.047
300.052
300.057
300.063
300.069
300.075
300.082
300.088
300.095
300.103
300.111
300.119
300.127
300.136
300.145
300.154
300.164
300.174
300.184
300.195
300.206
300.217
300.228
300.24
300.251
300.263
300.276
300.288
300.301
300.314
300.327
300.34
300.353
300.367
300.38
300.394
300.408
300.421
300.435
300.449
300.463
300.477
300.49
300.504
300.518
300.532
300.546
300.559
300.573
300.586
300.599
300.613
300.626
300.639
300.652
300.665
300.677
300.69
300.702
300.714
300.726
300.738
300.75
300.761
300.772
300.784
300.794
300.001
300.003
300.005
300.008
300.01
300.013
300.015
300.018
300.021
300.025
300.028
300.032
300.036
300.04
300.045
300.049
300.054
300.06
300.065
300.071
300.077
300.083
300.09
300.097
300.104
300.112
300.119
300.127
300.136
300.145
300.153
300.163
300.172
300.182
300.192
300.202
300.212
300.223
300.234
300.245
300.256
300.268
300.279
300.291
300.303
300.315
300.327
300.339
300.351
300.363
300.376
300.388
300.401
300.413
300.425
300.438
300.45
300.463
300.475
300.487
300.5
300.512
300.524
300.536
300.548
300.56
300.571
300.583
300.595
300.606
300.617
300.628
300.639
300.65
300.661
300.671
300.682
300.692
300.702
300.712
300.722
300.001
300.003
300.005
300.007
300.01
300.012
300.015
300.017
300.02
300.023
300.027
300.03
300.034
300.038
300.042
300.046
300.051
300.056
300.061
300.066
300.072
300.078
300.084
300.09
300.097
300.104
300.111
300.119
300.126
300.134
300.142
300.151
300.16
300.168
300.177
300.187
300.196
300.206
300.216
300.226
300.236
300.246
300.257
300.267
300.278
300.289
300.299
300.31
300.321
300.332
300.343
300.355
300.366
300.377
300.388
300.399
300.41
300.421
300.432
300.443
300.454
300.465
300.476
300.486
300.497
300.507
300.518
300.528
300.538
300.548
300.558
300.568
300.578
300.588
300.597
300.606
300.616
300.625
300.634
300.642
300.651
300.001
300.003
300.005
300.007
300.009
300.011
300.014
300.016
300.019
300.022
300.025
300.028
300.032
300.035
300.039
300.043
300.047
300.052
300.057
300.062
300.067
300.072
300.078
300.084
300.09
300.096
300.103
300.109
300.116
300.124
300.131
300.139
300.147
300.155
300.163
300.171
300.18
300.188
300.197
300.206
300.215
300.225
300.234
300.243
300.253
300.262
300.272
300.282
300.292
300.301
300.311
300.321
300.331
300.341
300.351
300.36
300.37
300.38
300.39
300.399
300.409
300.419
300.428
300.437
300.447
300.456
300.465
300.474
300.483
300.492
300.501
300.51
300.518
300.527
300.535
300.543
300.551
300.559
300.567
300.575
300.583
300.001
300.003
300.004
300.006
300.008
300.01
300.013
300.015
300.018
300.02
300.023
300.026
300.029
300.033
300.036
300.04
300.044
300.048
300.052
300.057
300.061
300.066
300.071
300.077
300.082
300.088
300.094
300.1
300.106
300.113
300.12
300.126
300.133
300.141
300.148
300.155
300.163
300.171
300.179
300.187
300.195
300.203
300.211
300.22
300.228
300.237
300.245
300.254
300.262
300.271
300.28
300.288
300.297
300.305
300.314
300.323
300.331
300.34
300.348
300.357
300.365
300.374
300.382
300.39
300.398
300.406
300.414
300.422
300.43
300.438
300.446
300.453
300.461
300.468
300.475
300.482
300.49
300.497
300.503
300.51
300.517
300.001
300.002
300.004
300.006
300.008
300.01
300.012
300.014
300.016
300.019
300.021
300.024
300.027
300.03
300.033
300.036
300.04
300.044
300.048
300.052
300.056
300.06
300.065
300.07
300.075
300.08
300.085
300.091
300.096
300.102
300.108
300.114
300.12
300.127
300.133
300.14
300.147
300.153
300.16
300.167
300.175
300.182
300.189
300.196
300.204
300.211
300.219
300.226
300.234
300.241
300.249
300.256
300.264
300.271
300.279
300.286
300.294
300.301
300.309
300.316
300.323
300.331
300.338
300.345
300.352
300.359
300.366
300.373
300.38
300.386
300.393
300.399
300.406
300.412
300.419
300.425
300.431
300.437
300.443
300.449
300.455
300.001
300.002
300.004
300.005
300.007
300.009
300.011
300.013
300.015
300.017
300.019
300.022
300.024
300.027
300.03
300.033
300.036
300.04
300.043
300.047
300.05
300.054
300.059
300.063
300.067
300.072
300.077
300.081
300.086
300.091
300.097
300.102
300.108
300.113
300.119
300.125
300.131
300.137
300.143
300.149
300.155
300.161
300.168
300.174
300.18
300.187
300.193
300.2
300.206
300.213
300.219
300.226
300.232
300.239
300.245
300.252
300.258
300.265
300.271
300.277
300.284
300.29
300.296
300.302
300.308
300.314
300.32
300.326
300.332
300.338
300.343
300.349
300.355
300.36
300.366
300.371
300.376
300.381
300.386
300.391
300.396
300.001
300.002
300.003
300.005
300.006
300.008
300.01
300.011
300.013
300.015
300.017
300.02
300.022
300.024
300.027
300.03
300.033
300.035
300.039
300.042
300.045
300.049
300.052
300.056
300.06
300.064
300.068
300.072
300.077
300.081
300.086
300.091
300.095
300.1
300.105
300.11
300.115
300.121
300.126
300.131
300.136
300.142
300.147
300.153
300.158
300.164
300.17
300.175
300.181
300.186
300.192
300.197
300.203
300.209
300.214
300.22
300.225
300.231
300.236
300.242
300.247
300.252
300.258
300.263
300.268
300.273
300.278
300.283
300.288
300.293
300.298
300.303
300.308
300.312
300.317
300.321
300.326
300.33
300.335
300.339
300.343
300.001
300.002
300.003
300.004
300.006
300.007
300.009
300.01
300.012
300.014
300.016
300.018
300.02
300.022
300.024
300.027
300.029
300.032
300.034
300.037
300.04
300.043
300.047
300.05
300.053
300.057
300.06
300.064
300.068
300.072
300.076
300.08
300.084
300.088
300.093
300.097
300.101
300.106
300.11
300.115
300.12
300.124
300.129
300.134
300.138
300.143
300.148
300.153
300.157
300.162
300.167
300.172
300.177
300.181
300.186
300.191
300.195
300.2
300.205
300.209
300.214
300.218
300.223
300.227
300.232
300.236
300.24
300.245
300.249
300.253
300.257
300.261
300.265
300.269
300.273
300.277
300.281
300.285
300.288
300.292
300.296
300.001
300.002
300.003
300.004
300.005
300.006
300.008
300.009
300.011
300.012
300.014
300.016
300.018
300.02
300.022
300.024
300.026
300.028
300.031
300.033
300.036
300.039
300.041
300.044
300.047
300.05
300.053
300.057
300.06
300.063
300.067
300.07
300.074
300.078
300.081
300.085
300.089
300.093
300.097
300.101
300.105
300.109
300.113
300.117
300.121
300.125
300.129
300.133
300.137
300.141
300.145
300.149
300.154
300.158
300.162
300.166
300.17
300.174
300.178
300.181
300.185
300.189
300.193
300.197
300.201
300.204
300.208
300.212
300.215
300.219
300.222
300.226
300.229
300.233
300.236
300.239
300.242
300.246
300.249
300.252
300.255
300
300.001
300.002
300.004
300.005
300.006
300.007
300.008
300.01
300.011
300.013
300.014
300.016
300.018
300.019
300.021
300.023
300.025
300.028
300.03
300.032
300.035
300.037
300.04
300.042
300.045
300.048
300.051
300.053
300.056
300.06
300.063
300.066
300.069
300.072
300.075
300.079
300.082
300.086
300.089
300.092
300.096
300.099
300.103
300.106
300.11
300.114
300.117
300.121
300.124
300.128
300.131
300.135
300.138
300.142
300.145
300.149
300.152
300.155
300.159
300.162
300.166
300.169
300.172
300.175
300.179
300.182
300.185
300.188
300.191
300.194
300.197
300.2
300.203
300.206
300.209
300.211
300.214
300.217
300.219
300.222
300
300.001
300.002
300.003
300.004
300.005
300.006
300.008
300.009
300.01
300.012
300.013
300.015
300.016
300.018
300.02
300.021
300.023
300.025
300.027
300.029
300.032
300.034
300.036
300.039
300.041
300.043
300.046
300.049
300.051
300.054
300.057
300.06
300.063
300.065
300.068
300.071
300.074
300.077
300.08
300.084
300.087
300.09
300.093
300.096
300.099
300.102
300.105
300.109
300.112
300.115
300.118
300.121
300.124
300.127
300.13
300.133
300.136
300.139
300.142
300.145
300.148
300.151
300.154
300.157
300.16
300.163
300.165
300.168
300.171
300.173
300.176
300.179
300.181
300.184
300.186
300.189
300.191
300.194
300.196
300.198
300
300.001
300.002
300.003
300.004
300.005
300.006
300.007
300.008
300.01
300.011
300.012
300.014
300.015
300.017
300.019
300.02
300.022
300.024
300.026
300.028
300.03
300.032
300.034
300.036
300.039
300.041
300.044
300.046
300.048
300.051
300.054
300.056
300.059
300.062
300.064
300.067
300.07
300.073
300.076
300.079
300.081
300.084
300.087
300.09
300.093
300.096
300.099
300.102
300.105
300.108
300.111
300.114
300.116
300.119
300.122
300.125
300.128
300.131
300.133
300.136
300.139
300.142
300.144
300.147
300.15
300.152
300.155
300.157
300.16
300.162
300.165
300.167
300.17
300.172
300.174
300.177
300.179
300.181
300.183
300.185
302.86
302.986
303.062
303.133
303.194
303.244
303.278
303.316
303.354
303.39
303.42
303.452
303.485
303.517
303.549
303.58
303.609
303.635
303.662
303.69
303.716
303.744
303.771
303.797
303.823
303.849
303.874
303.899
303.923
303.947
303.971
303.994
304.017
304.04
304.062
304.084
304.105
304.127
304.148
304.168
304.189
304.208
304.229
304.251
304.272
304.292
304.31
304.33
304.35
304.37
304.388
304.405
304.423
304.442
304.46
304.479
304.498
304.516
304.534
304.55
304.565
304.58
304.596
304.612
304.629
304.645
304.66
304.676
304.691
304.706
304.72
304.734
304.748
304.762
304.775
304.788
304.801
304.814
304.825
304.838
304.853
304.865
304.877
304.888
304.898
304.907
304.918
304.93
304.941
304.95
304.958
304.967
304.978
304.986
304.995
305.005
305.013
305.02
305.028
305.036
305.042
305.049
305.055
305.061
305.067
305.074
305.079
305.084
305.088
305.092
305.097
305.101
305.106
305.11
305.113
305.116
305.118
305.121
305.124
305.126
305.127
305.128
305.129
305.13
305.13
305.13
305.129
305.127
305.126
305.123
305.12
305.116
305.111
305.106
305.099
305.092
305.084
305.074
305.064
305.052
305.04
305.025
305.01
304.992
304.973
304.952
304.929
304.904
304.875
304.842
304.802
304.761
304.72
304.674
304.622
304.562
304.496
304.384
304.279
304.146
303.968
302.76
302.871
302.958
303.031
303.094
303.148
303.193
303.235
303.275
303.312
303.347
303.382
303.416
303.449
303.481
303.513
303.543
303.571
303.6
303.628
303.655
303.683
303.71
303.737
303.764
303.79
303.816
303.841
303.866
303.89
303.914
303.938
303.961
303.984
304.007
304.029
304.051
304.073
304.094
304.115
304.136
304.156
304.177
304.198
304.219
304.24
304.259
304.279
304.299
304.318
304.337
304.355
304.373
304.392
304.41
304.429
304.447
304.465
304.483
304.5
304.515
304.531
304.547
304.563
304.58
304.596
304.611
304.627
304.642
304.657
304.672
304.686
304.7
304.714
304.727
304.74
304.753
304.766
304.778
304.791
304.805
304.818
304.829
304.841
304.851
304.861
304.872
304.883
304.894
304.903
304.912
304.921
304.931
304.94
304.949
304.958
304.967
304.974
304.982
304.99
304.996
305.003
305.009
305.015
305.022
305.028
305.034
305.038
305.043
305.047
305.052
305.056
305.06
305.064
305.068
305.071
305.073
305.076
305.079
305.081
305.082
305.083
305.084
305.085
305.085
305.085
305.084
305.082
305.081
305.078
305.075
305.071
305.066
305.061
305.054
305.047
305.039
305.03
305.019
305.008
304.995
304.981
304.965
304.947
304.928
304.907
304.884
304.858
304.829
304.796
304.757
304.716
304.674
304.626
304.573
304.511
304.441
304.332
304.222
304.083
303.888
302.678
302.776
302.86
302.933
302.998
303.054
303.104
303.15
303.193
303.233
303.27
303.307
303.342
303.377
303.41
303.442
303.473
303.503
303.533
303.562
303.59
303.619
303.646
303.674
303.701
303.728
303.754
303.779
303.805
303.829
303.854
303.878
303.902
303.925
303.948
303.971
303.993
304.015
304.037
304.058
304.079
304.1
304.121
304.143
304.164