/*--------------------------------*- C++ -*----------------------------------*\
| =========                 |                                                 |
| \\      /  F ield         | OpenFOAM: The Open Source CFD Toolbox           |
|  \\    /   O peration     | Version:  2106                                  |
|   \\  /    A nd           | Website:  www.openfoam.com                      |
|    \\/     M anipulation  |                                                 |
\*---------------------------------------------------------------------------*/
FoamFile
{
    version     2.0;
    format      ascii;
    arch        "LSB;label=32;scalar=64";
    class       volVectorField;
    location    "2.2";
    object      U;
}
// * * * * * * * * * * * * * * * * * * * * * * * * * * * * * * * * * * * * * //

dimensions      [0 1 -1 0 0 0 0];

internalField   nonuniform List<vector> 
12013
(
(0.100019 -5.38999e-06 0)
(0.100098 -9.94771e-06 0)
(0.100226 -1.40611e-05 0)
(0.100389 -1.77227e-05 0)
(0.100584 -2.10374e-05 0)
(0.100805 -2.40657e-05 0)
(0.10105 -2.6844e-05 0)
(0.101315 -2.93986e-05 0)
(0.101598 -3.17455e-05 0)
(0.101895 -3.38963e-05 0)
(0.102205 -3.58573e-05 0)
(0.102524 -3.76371e-05 0)
(0.102852 -3.9246e-05 0)
(0.103187 -4.06992e-05 0)
(0.103526 -4.2019e-05 0)
(0.103869 -4.32329e-05 0)
(0.104214 -4.43741e-05 0)
(0.104561 -4.54797e-05 0)
(0.10491 -4.6587e-05 0)
(0.105261 -4.77324e-05 0)
(0.105613 -4.89485e-05 0)
(0.105967 -5.02623e-05 0)
(0.106325 -5.16946e-05 0)
(0.106685 -5.32582e-05 0)
(0.10705 -5.49589e-05 0)
(0.107419 -5.67965e-05 0)
(0.107794 -5.87646e-05 0)
(0.108174 -6.0853e-05 0)
(0.10856 -6.30471e-05 0)
(0.108952 -6.53309e-05 0)
(0.109351 -6.76864e-05 0)
(0.109755 -7.00952e-05 0)
(0.110166 -7.25386e-05 0)
(0.110583 -7.49985e-05 0)
(0.111006 -7.7456e-05 0)
(0.111433 -7.98942e-05 0)
(0.111866 -8.22949e-05 0)
(0.112302 -8.46407e-05 0)
(0.112742 -8.6914e-05 0)
(0.113184 -8.90965e-05 0)
(0.113628 -9.11697e-05 0)
(0.114074 -9.31132e-05 0)
(0.11452 -9.4906e-05 0)
(0.114966 -9.65249e-05 0)
(0.11541 -9.79448e-05 0)
(0.115851 -9.91375e-05 0)
(0.116289 -0.000100072 0)
(0.116722 -0.000100715 0)
(0.11715 -0.000101025 0)
(0.11757 -0.000100959 0)
(0.117981 -0.000100467 0)
(0.118382 -9.94914e-05 0)
(0.118771 -9.79649e-05 0)
(0.119147 -9.58109e-05 0)
(0.119507 -9.29402e-05 0)
(0.119849 -8.92472e-05 0)
(0.12017 -8.46078e-05 0)
(0.120469 -7.8875e-05 0)
(0.120741 -7.18722e-05 0)
(0.120984 -6.3386e-05 0)
(0.121193 -5.31569e-05 0)
(0.121364 -4.08669e-05 0)
(0.121491 -2.61207e-05 0)
(0.121568 -8.42311e-06 0)
(0.121588 1.2861e-05 0)
(0.121541 3.85666e-05 0)
(0.121416 6.97885e-05 0)
(0.1212 0.000107985 0)
(0.120875 0.000155143 0)
(0.120419 0.000214026 0)
(0.119803 0.000288575 0)
(0.118989 0.000384543 0)
(0.117924 0.000510567 0)
(0.116533 0.000679983 0)
(0.114712 0.000914005 0)
(0.112305 0.00124738 0)
(0.109075 0.00173878 0)
(0.104637 0.00249273 0)
(0.0983725 0.00372701 0)
(0.0894844 0.00606166 0)
(0.0793628 0.012324 0)
(0.100018 -1.64715e-05 0)
(0.100097 -3.05111e-05 0)
(0.100224 -4.31463e-05 0)
(0.100387 -5.43837e-05 0)
(0.100581 -6.45579e-05 0)
(0.100802 -7.38523e-05 0)
(0.101047 -8.23786e-05 0)
(0.101311 -9.02169e-05 0)
(0.101593 -9.74187e-05 0)
(0.10189 -0.000104016 0)
(0.102199 -0.000110033 0)
(0.102519 -0.000115492 0)
(0.102846 -0.000120426 0)
(0.10318 -0.000124883 0)
(0.103519 -0.000128928 0)
(0.103861 -0.000132649 0)
(0.104205 -0.000136146 0)
(0.104552 -0.000139532 0)
(0.1049 -0.000142922 0)
(0.10525 -0.000146429 0)
(0.105601 -0.000150152 0)
(0.105955 -0.000154175 0)
(0.106311 -0.00015856 0)
(0.10667 -0.000163347 0)
(0.107034 -0.000168554 0)
(0.107402 -0.000174181 0)
(0.107775 -0.000180208 0)
(0.108154 -0.000186603 0)
(0.108539 -0.000193322 0)
(0.108929 -0.000200315 0)
(0.109326 -0.000207528 0)
(0.10973 -0.000214903 0)
(0.110139 -0.000222385 0)
(0.110554 -0.000229915 0)
(0.110974 -0.000237438 0)
(0.1114 -0.0002449 0)
(0.11183 -0.000252247 0)
(0.112264 -0.000259425 0)
(0.112702 -0.000266379 0)
(0.113142 -0.000273054 0)
(0.113584 -0.000279393 0)
(0.114028 -0.000285333 0)
(0.114471 -0.00029081 0)
(0.114914 -0.000295754 0)
(0.115355 -0.000300087 0)
(0.115794 -0.000303722 0)
(0.11623 -0.000306567 0)
(0.11666 -0.000308514 0)
(0.117084 -0.000309444 0)
(0.117502 -0.000309221 0)
(0.11791 -0.000307693 0)
(0.118308 -0.000304683 0)
(0.118695 -0.000299987 0)
(0.119067 -0.000293372 0)
(0.119424 -0.000284563 0)
(0.119764 -0.000273242 0)
(0.120083 -0.00025903 0)
(0.120379 -0.000241479 0)
(0.120649 -0.000220053 0)
(0.12089 -0.000194104 0)
(0.121098 -0.000162846 0)
(0.121267 -0.000125316 0)
(0.121395 -8.03191e-05 0)
(0.121473 -2.63624e-05 0)
(0.121495 3.84604e-05 0)
(0.121452 0.000116632 0)
(0.121334 0.0002114 0)
(0.121128 0.000327069 0)
(0.120819 0.000469463 0)
(0.120387 0.000646612 0)
(0.119805 0.000869829 0)
(0.119042 0.0011554 0)
(0.118054 0.00152734 0)
(0.116785 0.00202185 0)
(0.115156 0.00269469 0)
(0.113065 0.00363335 0)
(0.110375 0.00497594 0)
(0.106899 0.00694002 0)
(0.102422 0.00986594 0)
(0.0969794 0.0142026 0)
(0.0923146 0.0199803 0)
(0.100017 -2.80478e-05 0)
(0.100095 -5.23785e-05 0)
(0.100221 -7.41404e-05 0)
(0.100383 -9.3488e-05 0)
(0.100576 -0.000111 0)
(0.100797 -0.000126994 0)
(0.10104 -0.000141664 0)
(0.101304 -0.000155147 0)
(0.101585 -0.000167534 0)
(0.101881 -0.000178879 0)
(0.102189 -0.000189223 0)
(0.102508 -0.000198606 0)
(0.102834 -0.000207084 0)
(0.103167 -0.000214738 0)
(0.103504 -0.000221682 0)
(0.103845 -0.000228064 0)
(0.104188 -0.000234059 0)
(0.104533 -0.00023986 0)
(0.10488 -0.000245666 0)
(0.105228 -0.000251668 0)
(0.105578 -0.000258039 0)
(0.10593 -0.000264923 0)
(0.106284 -0.000272426 0)
(0.106641 -0.000280618 0)
(0.107003 -0.000289532 0)
(0.107368 -0.000299165 0)
(0.107739 -0.000309484 0)
(0.108115 -0.000320433 0)
(0.108497 -0.000331938 0)
(0.108885 -0.000343912 0)
(0.109279 -0.000356261 0)
(0.109679 -0.000368889 0)
(0.110085 -0.000381695 0)
(0.110496 -0.000394584 0)
(0.110913 -0.000407458 0)
(0.111335 -0.000420224 0)
(0.111761 -0.000432788 0)
(0.112191 -0.000445059 0)
(0.112624 -0.000456942 0)
(0.11306 -0.000468344 0)
(0.113497 -0.000479162 0)
(0.113936 -0.000489294 0)
(0.114374 -0.000498627 0)
(0.114812 -0.000507039 0)
(0.115248 -0.000514399 0)
(0.115682 -0.00052056 0)
(0.116111 -0.000525359 0)
(0.116536 -0.000528615 0)
(0.116955 -0.000530124 0)
(0.117366 -0.000529655 0)
(0.117769 -0.000526946 0)
(0.118161 -0.000521698 0)
(0.118542 -0.000513564 0)
(0.118909 -0.000502147 0)
(0.11926 -0.000486983 0)
(0.119593 -0.00046753 0)
(0.119907 -0.000443152 0)
(0.120198 -0.000413091 0)
(0.120463 -0.000376447 0)
(0.1207 -0.000332134 0)
(0.120904 -0.000278839 0)
(0.121072 -0.000214956 0)
(0.121198 -0.000138506 0)
(0.121277 -4.7023e-05 0)
(0.121302 6.26123e-05 0)
(0.121266 0.000194418 0)
(0.12116 0.000353607 0)
(0.120972 0.000547016 0)
(0.120689 0.000783758 0)
(0.120295 0.00107618 0)
(0.119771 0.00144127 0)
(0.119093 0.00190284 0)
(0.118232 0.00249473 0)
(0.117154 0.00326568 0)
(0.115819 0.00428649 0)
(0.114187 0.00565977 0)
(0.112228 0.00753081 0)
(0.109941 0.0100936 0)
(0.10741 0.0135746 0)
(0.104971 0.018097 0)
(0.103581 0.0230379 0)
(0.100016 -4.00438e-05 0)
(0.100092 -7.55178e-05 0)
(0.100217 -0.000107034 0)
(0.100378 -0.000135071 0)
(0.10057 -0.000160434 0)
(0.100789 -0.000183589 0)
(0.101031 -0.000204819 0)
(0.101294 -0.000224328 0)
(0.101574 -0.000242244 0)
(0.101868 -0.000258649 0)
(0.102175 -0.000273602 0)
(0.102491 -0.000287161 0)
(0.102816 -0.000299406 0)
(0.103147 -0.000310454 0)
(0.103483 -0.00032047 0)
(0.103822 -0.000329667 0)
(0.104163 -0.000338297 0)
(0.104506 -0.000346639 0)
(0.10485 -0.000354981 0)
(0.105196 -0.0003636 0)
(0.105543 -0.000372745 0)
(0.105892 -0.000382624 0)
(0.106244 -0.000393393 0)
(0.106598 -0.000405153 0)
(0.106956 -0.000417951 0)
(0.107319 -0.000431782 0)
(0.107686 -0.000446602 0)
(0.108058 -0.000462327 0)
(0.108436 -0.000478851 0)
(0.108819 -0.00049605 0)
(0.109208 -0.000513786 0)
(0.109603 -0.00053192 0)
(0.110004 -0.000550307 0)
(0.11041 -0.000568807 0)
(0.110822 -0.000587281 0)
(0.111238 -0.000605592 0)
(0.111658 -0.000623606 0)
(0.112082 -0.000641189 0)
(0.112508 -0.000658206 0)
(0.112937 -0.000674518 0)
(0.113368 -0.000689983 0)
(0.113799 -0.000704448 0)
(0.11423 -0.000717752 0)
(0.114661 -0.00072972 0)
(0.115089 -0.000740162 0)
(0.115515 -0.000748868 0)
(0.115936 -0.000755603 0)
(0.116353 -0.000760109 0)
(0.116763 -0.000762093 0)
(0.117166 -0.000761224 0)
(0.11756 -0.00075713 0)
(0.117944 -0.000749382 0)
(0.118315 -0.000737491 0)
(0.118674 -0.00072089 0)
(0.119016 -0.000698925 0)
(0.119342 -0.000670831 0)
(0.119647 -0.000635711 0)
(0.119931 -0.000592504 0)
(0.12019 -0.000539952 0)
(0.12042 -0.000476546 0)
(0.12062 -0.000400467 0)
(0.120785 -0.000309505 0)
(0.12091 -0.000200952 0)
(0.120991 -7.14593e-05 0)
(0.121022 8.31538e-05 0)
(0.120996 0.000268199 0)
(0.120906 0.000490481 0)
(0.120744 0.000758778 0)
(0.1205 0.00108455 0)
(0.120163 0.00148293 0)
(0.119719 0.00197413 0)
(0.119156 0.00258533 0)
(0.118461 0.00335341 0)
(0.117621 0.00432834 0)
(0.116632 0.00557725 0)
(0.115504 0.00718793 0)
(0.114273 0.00926787 0)
(0.113028 0.0119294 0)
(0.111942 0.0152401 0)
(0.11131 0.0190822 0)
(0.111529 0.0228041 0)
(0.100014 -5.24826e-05 0)
(0.10009 -9.99157e-05 0)
(0.100213 -0.00014184 0)
(0.100372 -0.000179178 0)
(0.100562 -0.000212937 0)
(0.100779 -0.000243739 0)
(0.10102 -0.000271972 0)
(0.101281 -0.000297905 0)
(0.101559 -0.000321713 0)
(0.101851 -0.000343505 0)
(0.102156 -0.000363359 0)
(0.10247 -0.000381354 0)
(0.102793 -0.000397594 0)
(0.103121 -0.000412237 0)
(0.103454 -0.000425498 0)
(0.103791 -0.00043766 0)
(0.10413 -0.000449058 0)
(0.10447 -0.000460059 0)
(0.104812 -0.000471047 0)
(0.105154 -0.000482389 0)
(0.105498 -0.000494417 0)
(0.105844 -0.000507407 0)
(0.106191 -0.000521566 0)
(0.106542 -0.00053703 0)
(0.106896 -0.000553861 0)
(0.107253 -0.000572056 0)
(0.107615 -0.000591552 0)
(0.107983 -0.000612243 0)
(0.108355 -0.000633987 0)
(0.108733 -0.000656618 0)
(0.109116 -0.000679954 0)
(0.109505 -0.000703809 0)
(0.109899 -0.000727992 0)
(0.110298 -0.000752315 0)
(0.110702 -0.000776594 0)
(0.11111 -0.000800647 0)
(0.111522 -0.000824293 0)
(0.111938 -0.000847357 0)
(0.112356 -0.000869658 0)
(0.112776 -0.000891012 0)
(0.113198 -0.000911229 0)
(0.113619 -0.000930109 0)
(0.114041 -0.000947437 0)
(0.114461 -0.000962984 0)
(0.11488 -0.000976497 0)
(0.115295 -0.000987699 0)
(0.115706 -0.000996285 0)
(0.116112 -0.00100191 0)
(0.116511 -0.0010042 0)
(0.116903 -0.00100272 0)
(0.117286 -0.000996977 0)
(0.117658 -0.00098642 0)
(0.118019 -0.000970414 0)
(0.118366 -0.000948227 0)
(0.118698 -0.000919016 0)
(0.119013 -0.000881799 0)
(0.119309 -0.000835431 0)
(0.119583 -0.000778564 0)
(0.119834 -0.000709604 0)
(0.120058 -0.000626656 0)
(0.120252 -0.000527448 0)
(0.120414 -0.000409243 0)
(0.120539 -0.000268714 0)
(0.120623 -0.000101795 0)
(0.120663 9.65076e-05 0)
(0.120652 0.000332429 0)
(0.120587 0.000613816 0)
(0.12046 0.000950572 0)
(0.120266 0.00135528 0)
(0.119999 0.00184404 0)
(0.119653 0.00243748 0)
(0.119227 0.00316209 0)
(0.118718 0.00405171 0)
(0.118134 0.00514895 0)
(0.117493 0.00650594 0)
(0.116831 0.00818264 0)
(0.116212 0.0102393 0)
(0.11574 0.0127158 0)
(0.115567 0.0155864 0)
(0.115879 0.0186731 0)
(0.116814 0.021515 0)
(0.100013 -6.53834e-05 0)
(0.100087 -0.00012556 0)
(0.100208 -0.000178568 0)
(0.100365 -0.00022584 0)
(0.100553 -0.000268567 0)
(0.100768 -0.000307533 0)
(0.101007 -0.000343232 0)
(0.101265 -0.000376008 0)
(0.10154 -0.000406086 0)
(0.10183 -0.000433604 0)
(0.102132 -0.000458664 0)
(0.102444 -0.000481362 0)
(0.102764 -0.000501834 0)
(0.103089 -0.000520273 0)
(0.10342 -0.000536954 0)
(0.103753 -0.00055223 0)
(0.104088 -0.00056652 0)
(0.104425 -0.00058029 0)
(0.104763 -0.00059402 0)
(0.105102 -0.000608176 0)
(0.105442 -0.000623174 0)
(0.105783 -0.000639365 0)
(0.106126 -0.000657011 0)
(0.106472 -0.000676284 0)
(0.106821 -0.000697265 0)
(0.107173 -0.00071995 0)
(0.107529 -0.000744263 0)
(0.10789 -0.00077007 0)
(0.108255 -0.000797192 0)
(0.108626 -0.000825418 0)
(0.109002 -0.000854523 0)
(0.109383 -0.000884268 0)
(0.109768 -0.000914413 0)
(0.110159 -0.000944722 0)
(0.110554 -0.000974958 0)
(0.110953 -0.00100489 0)
(0.111355 -0.0010343 0)
(0.111761 -0.00106296 0)
(0.112169 -0.00109063 0)
(0.112578 -0.00111709 0)
(0.112988 -0.00114211 0)
(0.113399 -0.00116542 0)
(0.113808 -0.00118676 0)
(0.114217 -0.00120583 0)
(0.114623 -0.00122234 0)
(0.115025 -0.00123592 0)
(0.115423 -0.00124621 0)
(0.115816 -0.00125277 0)
(0.116202 -0.00125513 0)
(0.11658 -0.00125276 0)
(0.11695 -0.00124507 0)
(0.117309 -0.00123137 0)
(0.117656 -0.00121088 0)
(0.117991 -0.00118271 0)
(0.11831 -0.00114586 0)
(0.118613 -0.00109912 0)
(0.118897 -0.00104114 0)
(0.119161 -0.000970299 0)
(0.119403 -0.000884726 0)
(0.119619 -0.000782195 0)
(0.119809 -0.000660068 0)
(0.119968 -0.000515199 0)
(0.120095 -0.00034381 0)
(0.120185 -0.000141352 0)
(0.120237 9.76567e-05 0)
(0.120246 0.000379902 0)
(0.12021 0.000713614 0)
(0.120126 0.0011089 0)
(0.119992 0.00157819 0)
(0.119806 0.00213674 0)
(0.119569 0.00280323 0)
(0.119287 0.00360029 0)
(0.118967 0.00455485 0)
(0.118629 0.00569796 0)
(0.118299 0.00706336 0)
(0.118022 0.00868356 0)
(0.117862 0.0105813 0)
(0.117906 0.0127531 0)
(0.118258 0.0151407 0)
(0.119015 0.0175916 0)
(0.12021 0.0198216 0)
(0.100012 -7.8761e-05 0)
(0.100085 -0.000152442 0)
(0.100203 -0.000217224 0)
(0.100358 -0.000275079 0)
(0.100543 -0.000327371 0)
(0.100755 -0.000375037 0)
(0.100991 -0.000418687 0)
(0.101246 -0.000458746 0)
(0.101519 -0.000495488 0)
(0.101806 -0.000529086 0)
(0.102104 -0.000559665 0)
(0.102413 -0.000587345 0)
(0.102729 -0.000612288 0)
(0.103052 -0.000634732 0)
(0.103378 -0.000655007 0)
(0.103708 -0.000673541 0)
(0.104039 -0.000690844 0)
(0.104372 -0.000707481 0)
(0.104706 -0.000724036 0)
(0.10504 -0.000741075 0)
(0.105376 -0.000759108 0)
(0.105712 -0.000778561 0)
(0.10605 -0.000799758 0)
(0.106389 -0.00082291 0)
(0.106732 -0.000848118 0)
(0.107077 -0.000875378 0)
(0.107427 -0.000904602 0)
(0.10778 -0.000935626 0)
(0.108138 -0.000968233 0)
(0.1085 -0.00100217 0)
(0.108867 -0.00103716 0)
(0.109239 -0.00107291 0)
(0.109615 -0.00110912 0)
(0.109995 -0.00114552 0)
(0.11038 -0.00118181 0)
(0.110768 -0.00121771 0)
(0.111159 -0.00125294 0)
(0.111552 -0.00128723 0)
(0.111948 -0.0013203 0)
(0.112344 -0.00135188 0)
(0.112741 -0.00138166 0)
(0.113138 -0.00140934 0)
(0.113534 -0.00143461 0)
(0.113929 -0.0014571 0)
(0.11432 -0.00147645 0)
(0.114708 -0.00149223 0)
(0.115091 -0.001504 0)
(0.115469 -0.00151124 0)
(0.115839 -0.0015134 0)
(0.116203 -0.00150984 0)
(0.116557 -0.00149987 0)
(0.116901 -0.00148267 0)
(0.117233 -0.00145735 0)
(0.117553 -0.00142288 0)
(0.117858 -0.00137806 0)
(0.118147 -0.00132155 0)
(0.118419 -0.00125179 0)
(0.118672 -0.00116696 0)
(0.118904 -0.00106496 0)
(0.119114 -0.000943319 0)
(0.119299 -0.000799158 0)
(0.119457 -0.000629074 0)
(0.119587 -0.000429051 0)
(0.119686 -0.000194339 0)
(0.119753 8.06639e-05 0)
(0.119787 0.000402585 0)
(0.119786 0.000779363 0)
(0.11975 0.00122044 0)
(0.11968 0.00173697 0)
(0.119579 0.00234203 0)
(0.119453 0.00305072 0)
(0.119311 0.00388011 0)
(0.119167 0.00484884 0)
(0.119042 0.00597602 0)
(0.118966 0.00727909 0)
(0.11898 0.00876988 0)
(0.119136 0.010448 0)
(0.119494 0.0122908 0)
(0.120115 0.0142392 0)
(0.121044 0.0161837 0)
(0.122276 0.0179594 0)
(0.100011 -9.26324e-05 0)
(0.100082 -0.000180558 0)
(0.100198 -0.000257812 0)
(0.100349 -0.00032691 0)
(0.100532 -0.000389379 0)
(0.100741 -0.000446302 0)
(0.100973 -0.000498408 0)
(0.101225 -0.000546204 0)
(0.101494 -0.000590019 0)
(0.101777 -0.000630064 0)
(0.102072 -0.000666487 0)
(0.102377 -0.000699435 0)
(0.10269 -0.000729098 0)
(0.103008 -0.000755758 0)
(0.10333 -0.000779803 0)
(0.103656 -0.000801739 0)
(0.103983 -0.000822168 0)
(0.104311 -0.000841759 0)
(0.10464 -0.000861205 0)
(0.104969 -0.000881177 0)
(0.105299 -0.000902281 0)
(0.105629 -0.000925027 0)
(0.105961 -0.000949802 0)
(0.106294 -0.00097686 0)
(0.10663 -0.00100632 0)
(0.106968 -0.0010382 0)
(0.107309 -0.00107237 0)
(0.107654 -0.00110866 0)
(0.108003 -0.0011468 0)
(0.108356 -0.0011865 0)
(0.108712 -0.00122743 0)
(0.109074 -0.00126923 0)
(0.109439 -0.00131157 0)
(0.109807 -0.00135409 0)
(0.11018 -0.00139645 0)
(0.110555 -0.00143833 0)
(0.110933 -0.00147938 0)
(0.111313 -0.00151928 0)
(0.111695 -0.0015577 0)
(0.112077 -0.00159431 0)
(0.112459 -0.00162876 0)
(0.112841 -0.00166069 0)
(0.113221 -0.00168972 0)
(0.1136 -0.00171545 0)
(0.113975 -0.00173742 0)
(0.114346 -0.00175515 0)
(0.114713 -0.00176813 0)
(0.115073 -0.00177576 0)
(0.115427 -0.0017774 0)
(0.115773 -0.00177233 0)
(0.11611 -0.00175974 0)
(0.116438 -0.00173874 0)
(0.116754 -0.00170829 0)
(0.117057 -0.00166725 0)
(0.117348 -0.00161431 0)
(0.117623 -0.00154798 0)
(0.117882 -0.00146655 0)
(0.118124 -0.00136806 0)
(0.118346 -0.00125028 0)
(0.118549 -0.0011106 0)
(0.11873 -0.000946036 0)
(0.118889 -0.000753112 0)
(0.119023 -0.000527808 0)
(0.119134 -0.000265467 0)
(0.119219 3.92739e-05 0)
(0.11928 0.0003925 0)
(0.119316 0.000801278 0)
(0.119331 0.00127371 0)
(0.119327 0.00181892 0)
(0.119309 0.002447 0)
(0.119287 0.00316882 0)
(0.119271 0.00399563 0)
(0.119277 0.00493829 0)
(0.119324 0.006006 0)
(0.119441 0.00720434 0)
(0.119658 0.00853237 0)
(0.120011 0.00997857 0)
(0.120539 0.0115158 0)
(0.121274 0.0130959 0)
(0.122233 0.0146465 0)
(0.123401 0.0160741 0)
(0.100009 -0.000107017 0)
(0.100079 -0.000209905 0)
(0.100193 -0.000300337 0)
(0.100341 -0.00038134 0)
(0.10052 -0.000454609 0)
(0.100726 -0.000521359 0)
(0.100954 -0.000582441 0)
(0.101202 -0.000638442 0)
(0.101467 -0.000689753 0)
(0.101746 -0.000736622 0)
(0.102036 -0.000779227 0)
(0.102337 -0.000817736 0)
(0.102645 -0.000852374 0)
(0.102958 -0.000883464 0)
(0.103276 -0.000911457 0)
(0.103596 -0.000936936 0)
(0.103918 -0.000960598 0)
(0.104241 -0.00098322 0)
(0.104565 -0.0010056 0)
(0.104888 -0.00102854 0)
(0.105212 -0.00105272 0)
(0.105536 -0.00107875 0)
(0.105861 -0.00110709 0)
(0.106187 -0.00113804 0)
(0.106514 -0.00117174 0)
(0.106844 -0.0012082 0)
(0.107176 -0.00124731 0)
(0.107512 -0.00128884 0)
(0.10785 -0.00133251 0)
(0.108193 -0.00137796 0)
(0.108538 -0.0014248 0)
(0.108888 -0.00147264 0)
(0.10924 -0.00152107 0)
(0.109596 -0.00156968 0)
(0.109955 -0.00161808 0)
(0.110317 -0.00166586 0)
(0.11068 -0.00171265 0)
(0.111045 -0.00175805 0)
(0.111411 -0.0018017 0)
(0.111777 -0.00184319 0)
(0.112143 -0.00188213 0)
(0.112508 -0.00191811 0)
(0.112871 -0.00195068 0)
(0.113232 -0.00197937 0)
(0.113589 -0.00200369 0)
(0.113943 -0.00202308 0)
(0.114291 -0.00203694 0)
(0.114633 -0.00204463 0)
(0.114969 -0.00204542 0)
(0.115296 -0.00203851 0)
(0.115615 -0.00202301 0)
(0.115925 -0.00199792 0)
(0.116224 -0.00196215 0)
(0.116511 -0.00191444 0)
(0.116785 -0.00185339 0)
(0.117046 -0.00177742 0)
(0.117292 -0.00168476 0)
(0.117522 -0.00157337 0)
(0.117736 -0.00144098 0)
(0.117932 -0.00128496 0)
(0.118111 -0.00110238 0)
(0.118271 -0.000889881 0)
(0.118412 -0.000643663 0)
(0.118535 -0.000359441 0)
(0.11864 -3.24154e-05 0)
(0.118729 0.000342629 0)
(0.118803 0.000771457 0)
(0.118867 0.00126042 0)
(0.118925 0.00181627 0)
(0.118984 0.00244593 0)
(0.119052 0.00315621 0)
(0.119142 0.00395321 0)
(0.119266 0.00484163 0)
(0.119444 0.0058237 0)
(0.119694 0.00689773 0)
(0.12004 0.00805644 0)
(0.120504 0.00928489 0)
(0.121108 0.0105586 0)
(0.121868 0.0118419 0)
(0.122787 0.0130889 0)
(0.123851 0.0142473 0)
(0.100008 -0.00012193 0)
(0.100077 -0.000240479 0)
(0.100187 -0.000344795 0)
(0.100332 -0.000438364 0)
(0.100507 -0.00052306 0)
(0.100709 -0.000600219 0)
(0.100933 -0.000670803 0)
(0.101176 -0.00073549 0)
(0.101437 -0.000794729 0)
(0.101711 -0.000848809 0)
(0.101996 -0.000897937 0)
(0.102292 -0.00094231 0)
(0.102594 -0.000982183 0)
(0.102902 -0.00101792 0)
(0.103215 -0.00105004 0)
(0.103529 -0.0010792 0)
(0.103846 -0.0011062 0)
(0.104163 -0.00113191 0)
(0.10448 -0.00115727 0)
(0.104797 -0.00118316 0)
(0.105114 -0.0012104 0)
(0.105431 -0.00123968 0)
(0.105748 -0.00127152 0)
(0.106066 -0.00130628 0)
(0.106385 -0.00134414 0)
(0.106706 -0.00138511 0)
(0.107028 -0.00142907 0)
(0.107353 -0.00147576 0)
(0.107681 -0.00152487 0)
(0.108011 -0.00157597 0)
(0.108345 -0.00162864 0)
(0.108681 -0.00168242 0)
(0.10902 -0.00173684 0)
(0.109362 -0.00179142 0)
(0.109706 -0.00184571 0)
(0.110052 -0.00189926 0)
(0.1104 -0.00195162 0)
(0.110749 -0.00200235 0)
(0.111098 -0.00205101 0)
(0.111447 -0.00209716 0)
(0.111795 -0.00214034 0)
(0.112142 -0.00218008 0)
(0.112486 -0.00221589 0)
(0.112828 -0.00224724 0)
(0.113166 -0.00227356 0)
(0.1135 -0.00229426 0)
(0.113829 -0.00230866 0)
(0.114151 -0.00231606 0)
(0.114467 -0.00231567 0)
(0.114776 -0.00230661 0)
(0.115076 -0.00228794 0)
(0.115366 -0.0022586 0)
(0.115647 -0.00221742 0)
(0.115917 -0.0021631 0)
(0.116175 -0.00209419 0)
(0.116421 -0.00200909 0)
(0.116654 -0.00190599 0)
(0.116873 -0.0017829 0)
(0.117079 -0.00163758 0)
(0.11727 -0.00146754 0)
(0.117446 -0.00127002 0)
(0.117608 -0.00104195 0)
(0.117757 -0.00077997 0)
(0.117893 -0.000480375 0)
(0.118018 -0.000139177 0)
(0.118134 0.000247803 0)
(0.118245 0.000684827 0)
(0.118354 0.00117636 0)
(0.118466 0.00172682 0)
(0.118589 0.00234025 0)
(0.118732 0.00302003 0)
(0.118903 0.00376836 0)
(0.119115 0.00458571 0)
(0.119382 0.00547008 0)
(0.119717 0.0064162 0)
(0.120135 0.00741465 0)
(0.120649 0.00845115 0)
(0.121272 0.00950606 0)
(0.122007 0.0105546 0)
(0.122855 0.0115679 0)
(0.123803 0.0125167 0)
(0.100006 -0.000137385 0)
(0.100074 -0.00027227 0)
(0.100181 -0.000391169 0)
(0.100323 -0.000497964 0)
(0.100494 -0.000594712 0)
(0.100691 -0.000682859 0)
(0.10091 -0.00076348 0)
(0.101149 -0.000837336 0)
(0.101404 -0.000904939 0)
(0.101672 -0.000966623 0)
(0.101952 -0.00102262 0)
(0.102242 -0.00107317 0)
(0.102538 -0.00111854 0)
(0.102841 -0.00115915 0)
(0.103147 -0.00119557 0)
(0.103455 -0.00122854 0)
(0.103765 -0.00125897 0)
(0.104076 -0.00128782 0)
(0.104386 -0.00131616 0)
(0.104696 -0.00134499 0)
(0.105005 -0.00137522 0)
(0.105314 -0.00140766 0)
(0.105623 -0.0014429 0)
(0.105932 -0.00148135 0)
(0.106242 -0.00152323 0)
(0.106552 -0.00156856 0)
(0.106864 -0.00161721 0)
(0.107178 -0.0016689 0)
(0.107494 -0.00172327 0)
(0.107812 -0.00177986 0)
(0.108132 -0.00183819 0)
(0.108454 -0.00189772 0)
(0.108779 -0.00195793 0)
(0.109105 -0.00201828 0)
(0.109433 -0.00207825 0)
(0.109763 -0.00213733 0)
(0.110094 -0.00219501 0)
(0.110425 -0.00225079 0)
(0.110756 -0.00230418 0)
(0.111086 -0.00235468 0)
(0.111415 -0.00240177 0)
(0.111742 -0.00244493 0)
(0.112067 -0.00248362 0)
(0.112389 -0.00251724 0)
(0.112707 -0.0025452 0)
(0.11302 -0.00256682 0)
(0.113328 -0.00258139 0)
(0.11363 -0.00258816 0)
(0.113926 -0.00258627 0)
(0.114214 -0.00257482 0)
(0.114494 -0.00255281 0)
(0.114766 -0.00251916 0)
(0.115028 -0.00247265 0)
(0.115281 -0.00241199 0)
(0.115523 -0.00233573 0)
(0.115754 -0.00224229 0)
(0.115974 -0.00212993 0)
(0.116183 -0.00199675 0)
(0.11638 -0.00184067 0)
(0.116566 -0.00165944 0)
(0.116741 -0.0014506 0)
(0.116906 -0.00121152 0)
(0.117062 -0.000939388 0)
(0.117211 -0.000631241 0)
(0.117354 -0.000284017 0)
(0.117495 0.000105386 0)
(0.117637 0.000539744 0)
(0.117783 0.00102174 0)
(0.117941 0.00155375 0)
(0.118115 0.00213752 0)
(0.118312 0.00277388 0)
(0.118542 0.00346242 0)
(0.118813 0.00420112 0)
(0.119134 0.0049859 0)
(0.119515 0.00581029 0)
(0.119964 0.00666514 0)
(0.120489 0.00753841 0)
(0.121095 0.0084154 0)
(0.121782 0.00927924 0)
(0.122548 0.0101121 0)
(0.123383 0.0108971 0)
(0.100005 -0.000153384 0)
(0.100071 -0.00030526 0)
(0.100175 -0.000439427 0)
(0.100313 -0.000560096 0)
(0.100479 -0.000669512 0)
(0.100671 -0.000769225 0)
(0.100886 -0.00086041 0)
(0.101118 -0.000943918 0)
(0.101367 -0.00102032 0)
(0.10163 -0.00109 0)
(0.101904 -0.00115322 0)
(0.102187 -0.00121024 0)
(0.102477 -0.00126137 0)
(0.102772 -0.00130707 0)
(0.103071 -0.00134797 0)
(0.103373 -0.00138489 0)
(0.103676 -0.00141881 0)
(0.103979 -0.00145085 0)
(0.104282 -0.00148216 0)
(0.104584 -0.00151386 0)
(0.104885 -0.001547 0)
(0.105185 -0.00158246 0)
(0.105485 -0.00162094 0)
(0.105784 -0.00166289 0)
(0.106084 -0.00170858 0)
(0.106383 -0.00175805 0)
(0.106684 -0.00181116 0)
(0.106985 -0.0018676 0)
(0.107288 -0.00192699 0)
(0.107592 -0.00198881 0)
(0.107898 -0.00205252 0)
(0.108206 -0.00211753 0)
(0.108514 -0.00218324 0)
(0.108825 -0.00224907 0)
(0.109136 -0.00231441 0)
(0.109448 -0.0023787 0)
(0.10976 -0.00244136 0)
(0.110073 -0.00250184 0)
(0.110384 -0.00255958 0)
(0.110695 -0.00261404 0)
(0.111004 -0.00266464 0)
(0.111311 -0.00271081 0)
(0.111615 -0.00275195 0)
(0.111915 -0.00278744 0)
(0.112212 -0.00281661 0)
(0.112504 -0.00283876 0)
(0.112791 -0.00285314 0)
(0.113072 -0.00285894 0)
(0.113346 -0.0028553 0)
(0.113614 -0.00284129 0)
(0.113874 -0.00281588 0)
(0.114126 -0.00277798 0)
(0.11437 -0.00272642 0)
(0.114605 -0.00265991 0)
(0.114831 -0.00257706 0)
(0.115047 -0.00247639 0)
(0.115255 -0.00235628 0)
(0.115453 -0.002215 0)
(0.115643 -0.00205073 0)
(0.115824 -0.00186152 0)
(0.115997 -0.00164532 0)
(0.116165 -0.00140001 0)
(0.116327 -0.00112341 0)
(0.116486 -0.000813362 0)
(0.116645 -0.000467728 0)
(0.116806 -8.44843e-05 0)
(0.116973 0.000338021 0)
(0.117149 0.000800866 0)
(0.11734 0.00130481 0)
(0.11755 0.00184995 0)
(0.117786 0.00243548 0)
(0.118052 0.00305946 0)
(0.118357 0.00371869 0)
(0.118705 0.00440847 0)
(0.119103 0.00512251 0)
(0.119555 0.00585289 0)
(0.120065 0.00659022 0)
(0.120634 0.00732388 0)
(0.121262 0.00804256 0)
(0.121944 0.00873512 0)
(0.122675 0.00939179 0)
(0.100003 -0.000169923 0)
(0.100068 -0.000339413 0)
(0.100169 -0.000489514 0)
(0.100302 -0.000624687 0)
(0.100464 -0.000747371 0)
(0.100651 -0.000859211 0)
(0.100859 -0.00096148 0)
(0.101086 -0.00105511 0)
(0.101328 -0.00114075 0)
(0.101584 -0.0012188 0)
(0.101851 -0.00128959 0)
(0.102126 -0.00135338 0)
(0.102409 -0.00141052 0)
(0.102697 -0.00146152 0)
(0.102988 -0.00150706 0)
(0.103282 -0.00154804 0)
(0.103577 -0.00158554 0)
(0.103872 -0.00162077 0)
(0.104166 -0.00165501 0)
(0.104459 -0.0016895 0)
(0.104752 -0.00172541 0)
(0.105042 -0.00176372 0)
(0.105332 -0.00180522 0)
(0.105621 -0.00185043 0)
(0.105909 -0.00189965 0)
(0.106197 -0.00195296 0)
(0.106485 -0.0020102 0)
(0.106774 -0.00207108 0)
(0.107063 -0.00213513 0)
(0.107352 -0.00220183 0)
(0.107643 -0.00227056 0)
(0.107934 -0.00234067 0)
(0.108226 -0.00241151 0)
(0.108519 -0.00248242 0)
(0.108813 -0.00255273 0)
(0.109106 -0.0026218 0)
(0.109399 -0.00268902 0)
(0.109692 -0.00275376 0)
(0.109983 -0.0028154 0)
(0.110273 -0.00287335 0)
(0.110561 -0.00292699 0)
(0.110847 -0.0029757 0)
(0.111129 -0.00301883 0)
(0.111408 -0.00305572 0)
(0.111683 -0.00308567 0)
(0.111953 -0.00310795 0)
(0.112218 -0.00312179 0)
(0.112477 -0.00312635 0)
(0.11273 -0.00312076 0)
(0.112977 -0.0031041 0)
(0.113216 -0.00307535 0)
(0.113449 -0.00303346 0)
(0.113674 -0.00297728 0)
(0.113892 -0.00290563 0)
(0.114101 -0.00281721 0)
(0.114304 -0.00271067 0)
(0.114499 -0.0025846 0)
(0.114687 -0.0024375 0)
(0.114868 -0.00226784 0)
(0.115044 -0.00207404 0)
(0.115216 -0.00185451 0)
(0.115384 -0.00160767 0)
(0.115551 -0.001332 0)
(0.115718 -0.00102609 0)
(0.115888 -0.000688651 0)
(0.116064 -0.00031863 0)
(0.116248 8.47866e-05 0)
(0.116445 0.000521548 0)
(0.116657 0.000991209 0)
(0.11689 0.00149279 0)
(0.117147 0.00202455 0)
(0.117432 0.00258392 0)
(0.11775 0.00316736 0)
(0.118105 0.00377034 0)
(0.118499 0.00438739 0)
(0.118936 0.00501216 0)
(0.119415 0.00563756 0)
(0.119938 0.00625611 0)
(0.120502 0.00686025 0)
(0.121105 0.00744297 0)
(0.12174 0.00799855 0)
(0.100001 -0.000186984 0)
(0.100065 -0.000374679 0)
(0.100163 -0.000541342 0)
(0.100291 -0.000691626 0)
(0.100448 -0.000828149 0)
(0.100629 -0.000952656 0)
(0.100831 -0.00106651 0)
(0.10105 -0.00117072 0)
(0.101286 -0.00126599 0)
(0.101534 -0.0013528 0)
(0.101793 -0.00143147 0)
(0.10206 -0.00150231 0)
(0.102335 -0.00156571 0)
(0.102614 -0.0016222 0)
(0.102897 -0.00167253 0)
(0.103182 -0.00171767 0)
(0.103468 -0.00175878 0)
(0.103753 -0.00179719 0)
(0.104038 -0.0018343 0)
(0.104322 -0.00187146 0)
(0.104604 -0.00190996 0)
(0.104885 -0.0019509 0)
(0.105163 -0.00199513 0)
(0.105441 -0.00204329 0)
(0.105717 -0.0020957 0)
(0.105992 -0.00215246 0)
(0.106267 -0.00221345 0)
(0.106541 -0.00227832 0)
(0.106815 -0.00234661 0)
(0.10709 -0.00241773 0)
(0.107364 -0.00249102 0)
(0.107639 -0.00256577 0)
(0.107913 -0.00264125 0)
(0.108188 -0.00271674 0)
(0.108462 -0.00279152 0)
(0.108736 -0.00286487 0)
(0.109009 -0.00293612 0)
(0.109281 -0.00300458 0)
(0.109552 -0.0030696 0)
(0.10982 -0.00313051 0)
(0.110087 -0.00318666 0)
(0.11035 -0.00323738 0)
(0.11061 -0.00328199 0)
(0.110866 -0.00331981 0)
(0.111118 -0.0033501 0)
(0.111366 -0.00337213 0)
(0.111608 -0.0033851 0)
(0.111846 -0.00338819 0)
(0.112077 -0.00338055 0)
(0.112303 -0.00336125 0)
(0.112522 -0.00332935 0)
(0.112735 -0.00328385 0)
(0.112941 -0.00322369 0)
(0.113142 -0.00314779 0)
(0.113335 -0.00305501 0)
(0.113523 -0.00294419 0)
(0.113706 -0.00281412 0)
(0.113883 -0.0026636 0)
(0.114057 -0.00249142 0)
(0.114227 -0.00229639 0)
(0.114395 -0.00207739 0)
(0.114562 -0.00183337 0)
(0.11473 -0.00156339 0)
(0.114902 -0.0012667 0)
(0.115078 -0.000942747 0)
(0.115262 -0.000591243 0)
(0.115457 -0.000212155 0)
(0.115665 0.000194179 0)
(0.115888 0.000626343 0)
(0.11613 0.00108272 0)
(0.116395 0.0015612 0)
(0.116684 0.00205906 0)
(0.117 0.00257296 0)
(0.117346 0.00309894 0)
(0.117723 0.00363253 0)
(0.118132 0.0041688 0)
(0.118572 0.0047026 0)
(0.119044 0.00522865 0)
(0.119546 0.00574193 0)
(0.120074 0.00623796 0)
(0.120624 0.00671339 0)
(0.0999995 -0.000204537 0)
(0.100061 -0.000410979 0)
(0.100156 -0.00059479 0)
(0.10028 -0.000760749 0)
(0.100431 -0.000911648 0)
(0.100605 -0.00104933 0)
(0.1008 -0.00117523 0)
(0.101012 -0.00129044 0)
(0.101239 -0.00139573 0)
(0.101479 -0.00149162 0)
(0.101729 -0.00157848 0)
(0.101988 -0.00165663 0)
(0.102253 -0.0017265 0)
(0.102523 -0.00178866 0)
(0.102796 -0.0018439 0)
(0.103071 -0.00189326 0)
(0.103347 -0.001938 0)
(0.103623 -0.00197954 0)
(0.103897 -0.0020194 0)
(0.10417 -0.00205907 0)
(0.104441 -0.00209993 0)
(0.10471 -0.00214321 0)
(0.104977 -0.00218986 0)
(0.105242 -0.00224057 0)
(0.105505 -0.00229575 0)
(0.105767 -0.00235552 0)
(0.106027 -0.00241975 0)
(0.106287 -0.00248812 0)
(0.106545 -0.00256011 0)