/*--------------------------------*- C++ -*----------------------------------*\
| =========                 |                                                 |
| \\      /  F ield         | OpenFOAM: The Open Source CFD Toolbox           |
|  \\    /   O peration     | Version:  2106                                  |
|   \\  /    A nd           | Website:  www.openfoam.com                      |
|    \\/     M anipulation  |                                                 |
\*---------------------------------------------------------------------------*/
FoamFile
{
    version     2.0;
    format      ascii;
    arch        "LSB;label=32;scalar=64";
    class       surfaceScalarField;
    location    "0.39";
    object      phi;
}
// * * * * * * * * * * * * * * * * * * * * * * * * * * * * * * * * * * * * * //

dimensions      [1 0 -1 0 0 0 0];

oriented        oriented;

internalField   nonuniform List<scalar> 
23692
(
9.30376e-05
4.19844e-08
9.2923e-05
1.14572e-07
9.27414e-05
1.8162e-07
9.25299e-05
2.11508e-07
9.23255e-05
2.04397e-07
9.21462e-05
1.7937e-07
9.19916e-05
1.5462e-07
9.1853e-05
1.38662e-07
9.17212e-05
1.3185e-07
9.15902e-05
1.31098e-07
9.1457e-05
1.33219e-07
9.1321e-05
1.36141e-07
9.11822e-05
1.38896e-07
9.10412e-05
1.41189e-07
9.08984e-05
1.43035e-07
9.07542e-05
1.44542e-07
9.06087e-05
1.4582e-07
9.04621e-05
1.46946e-07
9.03146e-05
1.47966e-07
9.01663e-05
1.48895e-07
9.00172e-05
1.4974e-07
8.98675e-05
1.50488e-07
8.97172e-05
1.51117e-07
8.95666e-05
1.51607e-07
8.94159e-05
1.51927e-07
8.92652e-05
1.52054e-07
8.91147e-05
1.51965e-07
8.89648e-05
1.51642e-07
8.88156e-05
1.51074e-07
8.86675e-05
1.50258e-07
8.85207e-05
1.49198e-07
8.83754e-05
1.47905e-07
8.82318e-05
1.464e-07
8.80902e-05
1.44707e-07
8.79508e-05
1.42858e-07
8.78136e-05
1.4089e-07
8.76788e-05
1.38841e-07
8.75463e-05
1.36755e-07
8.74162e-05
1.34677e-07
8.72885e-05
1.32652e-07
8.7163e-05
1.30725e-07
8.70397e-05
1.28942e-07
8.69182e-05
1.2735e-07
8.67985e-05
1.25993e-07
8.66801e-05
1.24918e-07
8.65628e-05
1.24168e-07
8.64462e-05
1.2379e-07
8.63298e-05
1.23832e-07
8.62133e-05
1.24345e-07
8.6096e-05
1.25383e-07
8.59774e-05
1.27008e-07
8.58567e-05
1.2929e-07
8.57334e-05
1.32313e-07
8.56064e-05
1.36174e-07
8.54749e-05
1.4099e-07
8.53376e-05
1.46903e-07
8.51935e-05
1.54086e-07
8.50409e-05
1.62752e-07
8.4878e-05
1.73162e-07
8.47029e-05
1.85642e-07
8.4513e-05
2.00594e-07
8.43054e-05
2.18525e-07
8.40763e-05
2.40074e-07
8.38215e-05
2.66057e-07
8.35352e-05
2.97522e-07
8.32108e-05
3.35837e-07
8.28395e-05
3.82807e-07
8.24102e-05
4.4085e-07
8.19086e-05
5.13253e-07
8.13158e-05
6.04567e-07
8.06064e-05
7.21196e-07
7.97459e-05
8.72325e-07
7.86863e-05
1.07137e-06
7.73599e-05
1.33828e-06
7.56685e-05
1.70327e-06
7.34676e-05
2.21278e-06
7.05408e-05
2.93871e-06
6.65589e-05
3.99379e-06
6.10033e-05
5.56737e-06
5.30023e-05
8.01279e-06
1.22669e-05
4.07472e-05
9.95565e-05
8.48361e-08
9.94362e-05
2.34856e-07
9.92443e-05
3.73588e-07
9.90197e-05
4.36043e-07
9.88019e-05
4.22228e-07
9.86101e-05
3.71193e-07
9.84444e-05
3.20405e-07
9.82956e-05
2.87502e-07
9.81542e-05
2.73335e-07
9.80137e-05
2.71624e-07
9.78712e-05
2.75845e-07
9.77257e-05
2.81759e-07
9.75774e-05
2.87357e-07
9.74267e-05
2.92025e-07
9.72742e-05
2.95791e-07
9.71202e-05
2.98876e-07
9.69648e-05
3.01496e-07
9.68084e-05
3.03807e-07
9.6651e-05
3.05899e-07
9.64926e-05
3.07813e-07
9.63335e-05
3.09551e-07
9.61737e-05
3.11089e-07
9.60134e-05
3.12392e-07
9.58527e-05
3.13403e-07
9.56918e-05
3.14072e-07
9.5531e-05
3.14344e-07
9.53704e-05
3.14171e-07
9.52103e-05
3.13521e-07
9.50511e-05
3.1237e-07
9.48929e-05
3.1071e-07
9.47361e-05
3.0855e-07
9.45808e-05
3.05915e-07
9.44275e-05
3.02843e-07
9.42761e-05
2.99389e-07
9.4127e-05
2.95618e-07
9.39803e-05
2.91602e-07
9.3836e-05
2.87424e-07
9.36941e-05
2.83171e-07
9.35548e-05
2.78935e-07
9.34179e-05
2.7481e-07
9.32834e-05
2.7089e-07
9.3151e-05
2.67269e-07
9.30206e-05
2.64042e-07
9.2892e-05
2.61302e-07
9.27648e-05
2.59142e-07
9.26386e-05
2.57655e-07
9.25132e-05
2.56935e-07
9.23879e-05
2.5708e-07
9.22624e-05
2.58195e-07
9.21361e-05
2.60392e-07
9.20082e-05
2.63796e-07
9.18782e-05
2.68553e-07
9.17453e-05
2.74832e-07
9.16085e-05
2.82828e-07
9.14668e-05
2.92784e-07
9.13191e-05
3.04986e-07
9.1164e-05
3.19787e-07
9.1e-05
3.37615e-07
9.08252e-05
3.59002e-07
9.06375e-05
3.84599e-07
9.04343e-05
4.15216e-07
9.02126e-05
4.51869e-07
8.99687e-05
4.95829e-07
8.96979e-05
5.48715e-07
8.93949e-05
6.12595e-07
8.90528e-05
6.90148e-07
8.86631e-05
7.84884e-07
8.82148e-05
9.01454e-07
8.76945e-05
1.04612e-06
8.70842e-05
1.22741e-06
8.63608e-05
1.45714e-06
8.54939e-05
1.75189e-06
8.44427e-05
2.13521e-06
8.31528e-05
2.6409e-06
8.1551e-05
3.31772e-06
7.95409e-05
4.23565e-06
7.69998e-05
5.49252e-06
7.37885e-05
7.21775e-06
6.97994e-05
9.56913e-06
6.51604e-05
1.26643e-05
1.60943e-05
6.13456e-05
0.000106533
1.27469e-07
0.00010641
3.58349e-07
0.000106211
5.72758e-07
0.000105975
6.71365e-07
0.000105745
6.52793e-07
0.00010554
5.76113e-07
0.000105362
4.98728e-07
0.000105201
4.48051e-07
0.000105049
4.25801e-07
0.000104898
4.22635e-07
0.000104745
4.28669e-07
0.000104589
4.37427e-07
0.000104431
4.45812e-07
0.000104271
4.52846e-07
0.000104108
4.5855e-07
0.000103944
4.63237e-07
0.000103779
4.67233e-07
0.000103612
4.70765e-07
0.000103445
4.7397e-07
0.000103276
4.76901e-07
0.000103107
4.79569e-07
0.000102937
4.81935e-07
0.000102766
4.83939e-07
0.000102595
4.85503e-07
0.000102424
4.86543e-07
0.000102253
4.86978e-07
0.000102082
4.86737e-07
0.000101912
4.85769e-07
0.000101743
4.84036e-07
0.000101574
4.8153e-07
0.000101407
4.78262e-07
0.000101242
4.74272e-07
0.000101078
4.69619e-07
0.000100917
4.64384e-07
0.000100758
4.58665e-07
0.000100601
4.52579e-07
0.000100447
4.46249e-07
0.000100295
4.39811e-07
0.000100146
4.33406e-07
9.99991e-05
4.27175e-07
9.98547e-05
4.21265e-07
9.97125e-05
4.15821e-07
9.95723e-05
4.10986e-07
9.94338e-05
4.06905e-07
9.92967e-05
4.0372e-07
9.91607e-05
4.01573e-07
9.90252e-05
4.00611e-07
9.88899e-05
4.00981e-07
9.87541e-05
4.02844e-07
9.86174e-05
4.06372e-07
9.8479e-05
4.11758e-07
9.83383e-05
4.19221e-07
9.81943e-05
4.29015e-07
9.80462e-05
4.41445e-07
9.7893e-05
4.56869e-07
9.77333e-05
4.75722e-07
9.75659e-05
4.98534e-07
9.73892e-05
5.25951e-07
9.72012e-05
5.58758e-07
9.7e-05
5.9793e-07
9.67828e-05
6.44666e-07
9.65466e-05
7.00456e-07
9.62879e-05
7.67163e-07
9.60022e-05
8.47133e-07
9.56844e-05
9.43341e-07
9.5328e-05
1.0596e-06
9.49252e-05
1.20083e-06
9.44664e-05
1.37349e-06
9.39398e-05
1.58606e-06
9.33307e-05
1.84991e-06
9.2621e-05
2.18032e-06
9.17884e-05
2.59803e-06
9.08058e-05
3.13134e-06
8.96416e-05
3.81868e-06
8.82613e-05
4.71166e-06
8.66332e-05
5.87727e-06
8.47433e-05
7.39597e-06
8.26263e-05
9.34833e-06
8.0435e-05
1.1774e-05
7.85683e-05
1.45444e-05
1.70127e-05
7.76634e-05
0.000114
1.68608e-07
0.000113876
4.81707e-07
0.000113674
7.7509e-07
0.000113431
9.14397e-07
0.000113189
8.94889e-07
0.000112971
7.94623e-07
0.000112778
6.91045e-07
0.000112604
6.22011e-07
0.000112439
5.90768e-07
0.000112277
5.85303e-07
0.000112113
5.92526e-07
0.000111947
6.03722e-07
0.000111778
6.1465e-07
0.000111607
6.23922e-07
0.000111435
6.31496e-07
0.000111261
6.37759e-07
0.000111085
6.43121e-07
0.000110909
6.47878e-07
0.000110731
6.52202e-07
0.000110552
6.56168e-07
0.000110373
6.59779e-07
0.000110193
6.62989e-07
0.000110012
6.65712e-07
0.000109831
6.67845e-07
0.00010965
6.69274e-07
0.000109468
6.69891e-07
0.000109287
6.69603e-07
0.000109107
6.68335e-07
0.000108927
6.66043e-07
0.000108749
6.62712e-07
0.000108571
6.58361e-07
0.000108396
6.5304e-07
0.000108222
6.46832e-07
0.00010805
6.39847e-07
0.000107881
6.32219e-07
0.000107714
6.24101e-07
0.00010755
6.15665e-07
0.000107388
6.07093e-07
0.000107228
5.98575e-07
0.000107071
5.90304e-07
0.000106916
5.82479e-07
0.000106763
5.75295e-07
0.000106613
5.6895e-07
0.000106464
5.63636e-07
0.000106316
5.59548e-07
0.000106169
5.56878e-07
0.000106022
5.55825e-07
0.000105876
5.5659e-07
0.000105729
5.59389e-07
0.000105581
5.64453e-07
0.000105431
5.72043e-07
0.000105278
5.8245e-07
0.000105122
5.96018e-07
0.000104962
6.13149e-07
0.000104796
6.3432e-07
0.000104623
6.60107e-07
0.000104443
6.91208e-07
0.000104252
7.28466e-07
0.000104051
7.7291e-07
0.000103836
8.258e-07
0.000103605
8.8868e-07
0.000103355
9.63453e-07
0.000103083
1.05247e-06
0.000102786
1.15868e-06
0.000102457
1.28574e-06
0.000102092
1.43829e-06
0.000101685
1.62223e-06
0.000101227
1.84509e-06
0.000100711
2.11659e-06
0.000100126
2.44928e-06
9.94613e-05
2.85951e-06
9.87053e-05
3.36848e-06
9.78476e-05
4.00353e-06
9.68815e-05
4.79931e-06
9.58095e-05
5.79817e-06
9.46532e-05
7.04803e-06
9.34693e-05
8.59438e-06
9.23725e-05
1.04597e-05
9.15617e-05
1.25992e-05
9.13075e-05
1.48131e-05
1.66067e-05
9.17278e-05
0.000121991
2.068e-07
0.000121871
6.01186e-07
0.000121671
9.75865e-07
0.000121424
1.16136e-06
0.000121172
1.14678e-06
0.000120939
1.02694e-06
0.000120732
8.98742e-07
0.000120543
8.11122e-07
0.000120364
7.69821e-07
0.000120188
7.60858e-07
0.000120013
7.68273e-07
0.000119835
7.81201e-07
0.000119656
7.94216e-07
0.000119475
8.05447e-07
0.000119292
8.14725e-07
0.000119107
8.22465e-07
0.000118922
8.29134e-07
0.000118735
8.35077e-07
0.000118547
8.40498e-07
0.000118359
8.45479e-07
0.000118169
8.50021e-07
0.000117979
8.54065e-07
0.000117789
8.57505e-07
0.000117598
8.60206e-07
0.000117406
8.62031e-07
0.000117215
8.62843e-07
0.000117024
8.62524e-07
0.000116834
8.60987e-07
0.000116644
8.58172e-07
0.000116456
8.54065e-07
0.000116268
8.48687e-07
0.000116083
8.42104e-07
0.000115899
8.34419e-07
0.000115717
8.25772e-07
0.000115537
8.16328e-07
0.00011536
8.06285e-07
0.000115185
7.95857e-07
0.000115013
7.85271e-07
0.000114842
7.7477e-07
0.000114675
7.64598e-07
0.000114509
7.55003e-07
0.000114345
7.46234e-07
0.000114183
7.38538e-07
0.000114023
7.3216e-07
0.000113864
7.27346e-07
0.000113705
7.2434e-07
0.000113547
7.23387e-07
0.000113389
7.24744e-07
0.000113229
7.28682e-07
0.000113069
7.3549e-07
0.000112906
7.45493e-07
0.000112741
7.59054e-07
0.000112572
7.76596e-07
0.000112399
7.98614e-07
0.00011222
8.25697e-07
0.000112034
8.58545e-07
0.00011184
8.98002e-07
0.000111637
9.45085e-07
0.000111422
1.00103e-06
0.000111194
1.06732e-06
0.000110951
1.14577e-06
0.00011069
1.2386e-06
0.000110409
1.34851e-06
0.000110103
1.47881e-06
0.00010977
1.63359e-06
0.000109405
1.81791e-06
0.000109005
2.03803e-06
0.000108563
2.30177e-06
0.000108076
2.61885e-06
0.000107539
3.00141e-06
0.00010695
3.46449e-06
0.000106307
4.02655e-06
0.000105616
4.70979e-06
0.000104891
5.53991e-06
0.00010416
6.5445e-06
0.000103475
7.74882e-06
0.000102918
9.16633e-06
0.000102613
1.07808e-05
0.000102711
1.25163e-05
0.000103345
1.41947e-05
1.54987e-05
0.000104468
0.000130543
2.40619e-07
0.000130431
7.13013e-07
0.000130237
1.17016e-06
0.00012999
1.40804e-06
0.000129731
1.40625e-06
0.000129485
1.27284e-06
0.000129261
1.12288e-06
0.000129055
1.01694e-06
0.00012886
9.64447e-07
0.000128671
9.50468e-07
0.000128482
9.56725e-07
0.000128293
9.70375e-07
0.000128103
9.84795e-07
0.000127911
9.97541e-07
0.000127718
1.00825e-06
0.000127524
1.01729e-06
0.000127328
1.02514e-06
0.000127131
1.03218e-06
0.000126934
1.03863e-06
0.000126736
1.04458e-06
0.000126537
1.05001e-06
0.000126337
1.05485e-06
0.000126137
1.05897e-06
0.000125936
1.06223e-06
0.000125735
1.06444e-06
0.000125534
1.06545e-06
0.000125334
1.06512e-06
0.000125134
1.06335e-06
0.000124935
1.06007e-06
0.000124737
1.05525e-06
0.00012454
1.04894e-06
0.000124344
1.0412e-06
0.00012415
1.03217e-06
0.000123958
1.022e-06
0.000123769
1.0109e-06
0.000123581
9.99105e-07
0.000123396
9.86867e-07
0.000123212
9.74463e-07
0.000123031
9.62181e-07
0.000122853
9.50314e-07
0.000122676
9.39163e-07
0.000122501
9.29025e-07
0.000122327
9.20197e-07
0.000122155
9.12975e-07
0.000121984
9.07653e-07
0.000121813
9.04522e-07
0.000121643
9.03881e-07
0.000121472
9.06034e-07
0.0001213
9.11302e-07
0.000121127
9.20031e-07
0.000120951
9.32603e-07
0.000120773
9.49448e-07
0.000120591
9.71058e-07
0.000120405
9.98008e-07
0.000120212
1.03098e-06
0.000120014
1.07077e-06
0.000119807
1.11835e-06
0.000119592
1.17485e-06
0.000119365
1.24167e-06
0.000119127
1.32044e-06
0.000118874
1.41315e-06
0.000118606
1.52217e-06
0.000118319
1.65038e-06
0.000118013
1.80122e-06
0.000117683
1.97884e-06
0.000117329
2.18825e-06
0.000116947
2.4355e-06
0.000116537
2.72783e-06
0.000116098
3.07392e-06
0.000115632
3.48409e-06
0.000115143
3.97038e-06
0.000114639
4.54653e-06
0.000114138
5.22758e-06
0.000113666
6.02877e-06
0.000113263
6.96323e-06
0.000112991
8.03758e-06
0.00011293
9.24447e-06
0.000113176
1.05508e-05
0.000113826
1.18824e-05
0.000114929
1.31088e-05
1.40422e-05
0.000116401
0.000139695
2.68919e-07
0.000139594
8.13916e-07
0.00013941
1.35346e-06
0.000139168
1.65026e-06
0.000138904
1.67065e-06
0.000138645
1.53147e-06
0.000138404
1.36392e-06
0.000138181
1.24054e-06
0.000137969
1.17582e-06
0.000137765
1.15512e-06
0.000137563
1.15858e-06
0.000137362
1.17167e-06
0.00013716
1.1866e-06
0.000136958
1.20027e-06
0.000136754
1.21201e-06
0.00013655
1.22208e-06
0.000136345
1.23093e-06
0.000136139
1.23893e-06
0.000135932
1.2463e-06
0.000135724
1.25311e-06
0.000135516
1.25935e-06
0.000135307
1.26493e-06
0.000135097
1.26968e-06
0.000134888
1.27345e-06
0.000134678
1.27602e-06
0.000134468
1.27723e-06
0.000134258
1.27691e-06
0.000134049
1.27495e-06
0.000133841
1.27127e-06
0.000133633
1.26585e-06
0.000133427
1.25872e-06
0.000133222
1.24998e-06
0.000133019
1.23977e-06
0.000132817
1.22828e-06
0.000132618
1.21574e-06
0.00013242
1.20243e-06
0.000132224
1.18863e-06
0.00013203
1.17467e-06
0.000131838
1.16087e-06
0.000131648
1.14759e-06
0.00013146
1.13515e-06
0.000131274
1.12391e-06
0.000131088
1.11422e-06
0.000130904
1.1064e-06
0.000130721
1.10081e-06
0.000130538
1.09778e-06
0.000130354
1.09766e-06
0.000130171
1.10078e-06
0.000129986
1.10753e-06
0.0001298
1.11829e-06
0.000129611
1.13349e-06
0.00012942
1.15362e-06
0.000129225
1.17922e-06
0.000129026
1.21094e-06
0.000128822
1.24951e-06
0.000128611
1.29581e-06
0.000128393
1.35087e-06
0.000128167
1.41592e-06
0.000127932
1.49239e-06
0.000127686
1.58201e-06
0.000127428
1.6868e-06
0.000127157
1.80914e-06
0.000126872
1.95184e-06
0.000126572
2.11822e-06
0.000126255
2.31215e-06
0.000125922
2.53815e-06
0.000125573
2.80149e-06
0.00012521
3.10819e-06
0.000124836
3.46512e-06
0.000124458
3.87989e-06
0.000124085
4.36072e-06
0.000123733
4.91604e-06
0.000123425
5.55372e-06
0.000123191
6.27981e-06
0.000123076
7.09635e-06
0.000123133
7.9981e-06
0.000123427
8.96785e-06
0.000124025
9.97039e-06
0.000124979
1.09464e-05
0.000126295
1.18097e-05
1.24545e-05
0.000127901
0.000149488
2.91061e-07
0.0001494
9.01612e-07
0.000149231
1.5222e-06
0.000148997
1.88426e-06
0.000148731
1.93712e-06
0.000148461
1.80133e-06
0.000148203
1.62153e-06
0.000147962
1.48231e-06
0.000147733
1.40459e-06
0.000147513
1.37545e-06
0.000147297
1.37433e-06
0.000147084
1.38541e-06
0.000146871
1.39978e-06
0.000146658
1.41362e-06
0.000146444
1.42589e-06
0.00014623
1.43665e-06
0.000146015
1.44625e-06
0.0001458
1.45502e-06
0.000145584
1.46315e-06
0.000145367
1.4707e-06
0.00014515
1.47764e-06
0.000144932
1.48385e-06
0.000144714
1.48916e-06
0.000144495
1.49337e-06
0.000144277
1.49628e-06
0.000144059
1.49767e-06
0.000143841
1.49738e-06
0.000143623
1.49528e-06
0.000143406
1.49128e-06
0.00014319
1.48537e-06
0.000142975
1.47759e-06
0.000142761
1.46804e-06
0.000142548
1.45687e-06
0.000142337
1.44431e-06
0.000142128
1.4306e-06
0.00014192
1.41606e-06
0.000141714
1.40102e-06
0.00014151
1.38581e-06
0.000141307
1.37083e-06
0.000141106
1.35644e-06
0.000140906
1.34304e-06
0.000140708
1.33101e-06
0.000140511
1.32073e-06
0.000140314
1.3126e-06
0.000140119
1.30698e-06
0.000139923
1.30426e-06
0.000139727
1.30482e-06
0.000139531
1.30904e-06
0.000139333
1.31733e-06
0.000139134
1.33012e-06
0.000138933
1.34787e-06
0.000138729
1.3711e-06
0.000138522
1.4004e-06
0.000138311
1.43645e-06
0.000138096
1.48e-06
0.000137875
1.53197e-06
0.000137648
1.59341e-06
0.000137415
1.66555e-06
0.000137174
1.74982e-06
0.000136924
1.84789e-06
0.000136666
1.96168e-06
0.000136399
2.09342e-06
0.000136123
2.24567e-06
0.000135838
2.42135e-06
0.000135544
2.62375e-06
0.000135244
2.85656e-06
0.000134939
3.12387e-06
0.000134636
3.43009e-06
0.00013434
3.77986e-06
0.00013406
4.17788e-06
0.000133811
4.62854e-06
0.00013361
5.13546e-06
0.000133482
5.70069e-06
0.000133457
6.32364e-06
0.000133573
6.99952e-06
0.000133872
7.71742e-06
0.000134401
8.45792e-06
0.000135199
9.19075e-06
0.000136291
9.87342e-06
0.000137667
1.04525e-05
1.08698e-05
0.00013927
0.000159966
3.07028e-07
0.000159893
9.7512e-07
0.000159741
1.6743e-06
0.000159518
2.10719e-06
0.000159252
2.20285e-06
0.000158973
2.08027e-06
0.0001587
1.89446e-06
0.000158441
1.74177e-06
0.000158195
1.65077e-06
0.000157959
1.61166e-06
0.000157729
1.60421e-06
0.000157503
1.61174e-06
0.000157278
1.62437e-06
0.000157055
1.63756e-06
0.000156831
1.64976e-06
0.000156608
1.66078e-06
0.000156384
1.67082e-06
0.000156159
1.68012e-06
0.000155934
1.68881e-06
0.000155709
1.69694e-06
0.000155483
1.70444e-06
0.000155257
1.71117e-06
0.000155031
1.71695e-06
0.000154805
1.72154e-06
0.000154578
1.72473e-06
0.000154352
1.7263e-06
0.000154126
1.72606e-06
0.0001539
1.72387e-06
0.000153675
1.71966e-06
0.00015345
1.7134e-06
0.000153227
1.70514e-06
0.000153004
1.69499e-06
0.000152783
1.68313e-06
0.000152562
1.66978e-06
0.000152344
1.65523e-06
0.000152126
1.6398e-06
0.00015191
1.62385e-06
0.000151695
1.60777e-06
0.000151482
1.59195e-06
0.00015127
1.57682e-06
0.000151059
1.56279e-06
0.000150849
1.55029e-06
0.00015064
1.53973e-06
0.000150431
1.53153e-06
0.000150223
1.5261e-06
0.000150015
1.52385e-06
0.000149807
1.5252e-06
0.000149598
1.53054e-06
0.000149388
1.54032e-06
0.000149177
1.55498e-06
0.000148964
1.57501e-06
0.000148749
1.60095e-06
0.000148531
1.63338e-06
0.00014831
1.67298e-06
0.000148085
1.72052e-06
0.000147857
1.77688e-06
0.000147624
1.84307e-06
0.000147386
1.92026e-06
0.000147143
2.00977e-06
0.000146896
2.11312e-06
0.000146644
2.23201e-06
0.000146387
2.36836e-06
0.000146127
2.52429e-06
0.000145865
2.70212e-06
0.000145603
2.90437e-06
0.000145345
3.13369e-06
0.000145096
3.3928e-06
0.000144861
3.68437e-06
0.00014465
4.01086e-06
0.000144473
4.37429e-06
0.000144346
4.77584e-06
0.000144286
5.21546e-06
0.000144315
5.69126e-06
0.00014446
6.19875e-06
0.000144749
6.73002e-06
0.000145214
7.27278e-06
0.000145882
7.80956e-06
0.000146776
8.31718e-06
0.000147902
8.7672e-06
0.000149247
9.12778e-06
9.36776e-06
0.000150768
0.000171178
3.17397e-07
0.000171118
1.03482e-06
0.000170983
1.80924e-06
0.000170773
2.31732e-06
0.000170511
2.46532e-06
0.000170225
2.36573e-06
0.000169939
2.18067e-06
0.000169663
2.01758e-06
0.000169401
1.91363e-06
0.000169149
1.86346e-06
0.000168905
1.84811e-06
0.000168666
1.85062e-06
0.000168431
1.86034e-06
0.000168197
1.87198e-06
0.000167963
1.88347e-06
0.00016773
1.89427e-06
0.000167497
1.90438e-06
0.000167264
1.91392e-06
0.000167031
1.92296e-06
0.000166797
1.93148e-06
0.000166564
1.93938e-06
0.00016633
1.94651e-06
0.000166096
1.95264e-06
0.000165861
1.95754e-06
0.000165627
1.96096e-06
0.000165393
1.96269e-06
0.00016516
1.96253e-06
0.000164926
1.96034e-06
0.000164693
1.95603e-06
0.000164461
1.94958e-06
0.000164229
1.94105e-06
0.000163998
1.93055e-06
0.000163768
1.91827e-06
0.000163539
1.90445e-06
0.000163311
1.88939e-06
0.000163084
1.87344e-06
0.000162858
1.85697e-06
0.000162633
1.84038e-06
0.000162409
1.82411e-06
0.000162186
1.80859e-06
0.000161964
1.79427e-06
0.000161743
1.7816e-06
0.000161522
1.77102e-06
0.000161302
1.76297e-06
0.000161082
1.75788e-06
0.000160862
1.75619e-06
0.000160641
1.75831e-06
0.000160421
1.76469e-06
0.000160199
1.77574e-06
0.000159977
1.79193e-06
0.000159753
1.81375e-06
0.000159528
1.84171e-06
0.000159301
1.87638e-06
0.000159072
1.91842e-06
0.000158841
1.96853e-06
0.000158607
2.02752e-06
0.000158372
2.09631e-06
0.000158134
2.17593e-06
0.000157895
2.2675e-06
0.000157655
2.3723e-06
0.000157414
2.49171e-06
0.000157175
2.6272e-06
0.000156938
2.78036e-06
0.000156708
2.9528e-06
0.000156486
3.14615e-06
0.000156278
3.36197e-06
0.00015609
3.60163e-06
0.000155929
3.86623e-06
0.000155804
4.15635e-06
0.000155728
4.47189e-06
0.000155713
4.81175e-06
0.000155776
5.17356e-06
0.000155935
5.55325e-06
0.000156211
5.94471e-06
0.000156622
6.33945e-06
0.00015719
6.72627e-06
0.00015793
7.09122e-06
0.00015885
7.4179e-06
0.00015995
7.68814e-06
0.000161216
7.88362e-06
7.98801e-06
0.000162616
0.000183173
3.23163e-07
0.000183126
1.08218e-06
0.000183007
1.92791e-06
0.000182811
2.51409e-06
0.000182553
2.7225e-06
0.000182264
2.65498e-06
0.000181967
2.47755e-06
0.000181677
2.30771e-06
0.000181399
2.19183e-06
0.000181133
2.13004e-06
0.000180875
2.10561e-06
0.000180624
2.10183e-06
0.000180378
2.10751e-06
0.000180133
2.11672e-06
0.00017989
2.12682e-06
0.000179648
2.13689e-06
0.000179406
2.14669e-06
0.000179165
2.15617e-06
0.000178924
2.1653e-06
0.000178682
2.17401e-06
0.000178441
2.18215e-06
0.000178199
2.18954e-06
0.000177957
2.19592e-06
0.000177716
2.20105e-06
0.000177474
2.20468e-06
0.000177233
2.20657e-06
0.000176992
2.20653e-06
0.000176751
2.20441e-06
0.00017651
2.20013e-06
0.00017627
2.19366e-06
0.000176031
2.18508e-06
0.000175792
2.17449e-06
0.000175554
2.16209e-06
0.000175316
2.14813e-06
0.000175079
2.13291e-06
0.000174842
2.1168e-06
0.000174607
2.10017e-06
0.000174372
2.08345e-06
0.000174138
2.06708e-06
0.000173904
2.0515e-06
0.000173671
2.0372e-06
0.000173439
2.02461e-06
0.000173207
2.01421e-06
0.000172975
2.00645e-06
0.000172743
2.00176e-06
0.000172512
2.00059e-06
0.000172281
2.00335e-06
0.000172049
2.01048e-06
0.000171817
2.02241e-06
0.000171585
2.03956e-06
0.000171352
2.0624e-06
0.000171119
2.09141e-06
0.000170885
2.12711e-06
0.000170651
2.17006e-06
0.000170417
2.22091e-06
0.000170182
2.28033e-06
0.000169948
2.34908e-06
0.000169715
2.42799e-06
0.000169485
2.51794e-06
0.000169257
2.61988e-06
0.000169034
2.73478e-06
0.000168818
2.86365e-06
0.000168612
3.00744e-06
0.000168419
3.16706e-06
0.000168244
3.34328e-06
0.000168091
3.53663e-06
0.000167967
3.74736e-06
0.00016788
3.97526e-06
0.000167839
4.21955e-06
0.000167854
4.47871e-06
0.000167938
4.75029e-06
0.000168103
5.03077e-06
0.000168364
5.31532e-06
0.000168733
5.59777e-06
0.000169225
5.87045e-06
0.000169849
6.12431e-06
0.000170614
6.34912e-06
0.00017152
6.53388e-06
0.000172563
6.66753e-06
0.00017373
6.73987e-06
6.74271e-06
0.000174997
0.000196007
3.25522e-07
0.00019597
1.11938e-06
0.000195866
2.03224e-06
0.000195682
2.69794e-06
0.000195432
2.97302e-06
0.000195141
2.94548e-06
0.000194837
2.78224e-06
0.000194535
2.60969e-06
0.000194243
2.48354e-06
0.000193963
2.41021e-06
0.000193693
2.37596e-06
0.00019343
2.36489e-06
0.000193172
2.36558e-06
0.000192918
2.37154e-06
0.000192666
2.37959e-06
0.000192415
2.38842e-06
0.000192164
2.3975e-06
0.000191915
2.4066e-06
0.000191665
2.41558e-06
0.000191416
2.42428e-06
0.000191167
2.4325e-06
0.000190918
2.44001e-06
0.000190669
2.44655e-06
0.000190421
2.45186e-06
0.000190172
2.45566e-06
0.000189924
2.45773e-06
0.000189675
2.45786e-06
0.000189427
2.45591e-06
0.000189179
2.4518e-06
0.000188932
2.44551e-06
0.000188685
2.43709e-06
0.000188438
2.42667e-06
0.000188191
2.41444e-06
0.000187945
2.40066e-06
0.000187699
2.38562e-06
0.000187453
2.36968e-06
0.000187208
2.35324e-06
0.000186964
2.33671e-06
0.00018672
2.32054e-06
0.000186476
2.30519e-06
0.000186232
2.29112e-06
0.000185989
2.27879e-06
0.000185747
2.26868e-06
0.000185504
2.26122e-06
0.000185262
2.25685e-06
0.000185021
2.25601e-06
0.000184779
2.2591e-06
0.000184538
2.26652e-06
0.000184298
2.27868e-06
0.000184058
2.29596e-06
0.000183818
2.31878e-06
0.000183579
2.34755e-06
0.000183342
2.38271e-06
0.000183106
2.42472e-06
0.000182871
2.47409e-06
0.00018264
2.53133e-06
0.000182412
2.59701e-06
0.000182189
2.67171e-06
0.000181971
2.75602e-06
0.000181762
2.85053e-06
0.000181562
2.95579e-06
0.000181375
3.0723e-06
0.000181205
3.20045e-06
0.000181054
3.34048e-06
0.000180927
3.49239e-06
0.000180831
3.65593e-06
0.000180771
3.83046e-06
0.000180755
4.0149e-06
0.00018079
4.2076e-06
0.000180886
4.40628e-06
0.000181052
4.60795e-06
0.000181298
4.8088e-06
0.000181633
5.0042e-06
0.000182066
5.18871e-06
0.000182604
5.35615e-06
0.000183252
5.49979e-06
0.000184013
5.61257e-06
0.000184883
5.68754e-06
0.000185856
5.71827e-06
0.00018692
5.69941e-06
5.6272e-06
0.000188059
0.000209739
3.25632e-07
0.00020971
1.14885e-06
0.000209617
2.12471e-06
0.000209445
2.87003e-06
0.000209202
3.21619e-06
0.000208913
3.23504e-06
0.000208603
3.09199e-06
0.000208292
2.92092e-06
0.000207989
2.78668e-06
0.000207697
2.70247e-06
0.000207415
2.65816e-06
0.000207141
2.63915e-06
0.000206873
2.6341e-06
0.000206608
2.63609e-06
0.000206347
2.64151e-06
0.000206087
2.6486e-06
0.000205829
2.65657e-06
0.000205571
2.66498e-06
0.000205314
2.67356e-06
0.000205058
2.68205e-06
0.000204802
2.69019e-06
0.000204545
2.69772e-06
0.000204289
2.70435e-06
0.000204034
2.70979e-06
0.000203778
2.71377e-06
0.000203523
2.71605e-06
0.000203267
2.71643e-06
0.000203012
2.71477e-06
0.000202757
2.71097e-06
0.000202502
2.70504e-06
0.000202247
2.69701e-06
0.000201992
2.687e-06
0.000201737
2.67521e-06
0.000201483
2.66188e-06
0.000201228
2.64731e-06
0.000200974
2.63184e-06
0.00020072
2.61585e-06
0.000200466
2.59977e-06
0.000200212
2.58403e-06
0.000199959
2.56907e-06
0.000199706
2.55536e-06
0.000199453
2.54335e-06
0.000199201
2.53348e-06
0.000198949
2.5262e-06
0.000198698
2.52191e-06
0.000198447
2.52102e-06
0.000198198
2.52391e-06
0.000197949
2.53093e-06
0.000197702
2.54243e-06
0.000197456
2.55875e-06
0.000197213
2.58022e-06
0.000196971
2.60716e-06
0.000196733
2.63991e-06
0.000196499
2.67879e-06
0.000196269
2.72414e-06
0.000196044
2.77631e-06
0.000195827
2.83563e-06
0.000195617
2.90243e-06
0.000195418
2.97698e-06
0.000195232
3.05952e-06
0.00019506
3.1502e-06
0.000194906
3.24907e-06
0.000194774
3.35601e-06
0.000194668
3.47072e-06
0.000194591
3.59265e-06
0.000194551
3.72096e-06
0.000194551
3.85445e-06
0.000194599
3.99155e-06
0.000194701
4.13022e-06
0.000194865
4.26796e-06
0.000195096
4.40176e-06
0.000195402
4.52811e-06
0.000195788
4.64305e-06
0.00019626
4.74225e-06
0.00019682
4.82109e-06
0.00019747
4.8749e-06
0.000198209
4.89911e-06
0.000199032
4.88959e-06
0.000199933
4.84286e-06
0.000200901
4.75641e-06
4.62886e-06
0.000201924
0.000224432
3.2449e-07
0.000224408
1.17292e-06
0.000224324
2.20795e-06
0.000224163
3.03198e-06
0.000223927
3.45185e-06
0.00022364
3.522e-06
0.000223328
3.40433e-06
0.00022301
3.23882e-06
0.000222698
3.09904e-06
0.000222395
3.00511e-06
0.000222103
2.95097e-06
0.000221818
2.92373e-06
0.00022154
2.91243e-06
0.000221267
2.90992e-06
0.000220997
2.91218e-06
0.000220729
2.9171e-06
0.000220462
2.9236e-06
0.000220197
2.93104e-06
0.000219933
2.93899e-06
0.000219669
2.9471e-06
0.000219406
2.95504e-06
0.000219143
2.9625e-06
0.00021888
2.96916e-06
0.000218617
2.97472e-06
0.000218355
2.9789e-06
0.000218092
2.98144e-06
0.00021783
2.98216e-06
0.000217568
2.9809e-06
0.000217305
2.97758e-06
0.000217043
2.97217e-06
0.00021678
2.96472e-06
0.000216518
2.95535e-06
0.000216255
2.94423e-06
0.000215993
2.93158e-06
0.00021573
2.91769e-06
0.000215467
2.90289e-06
0.000215204
2.88755e-06
0.000214942
2.87207e-06
0.000214679
2.85685e-06
0.000214417
2.84234e-06
0.000214155
2.82897e-06
0.000213893
2.81717e-06
0.000213633
2.80736e-06
0.000213373
2.79994e-06
0.000213114
2.79529e-06
0.000212857
2.79377e-06
0.000212601
2.79569e-06
0.000212347
2.80138e-06
0.000212096
2.81109e-06
0.000211848
2.82509e-06
0.000211603
2.84361e-06
0.000211363
2.86687e-06
0.000211127
2.89507e-06
0.000210898
2.92839e-06
0.000210677
2.967e-06
0.000210464
3.01105e-06
0.000210261
3.06064e-06
0.00021007
3.11585e-06
0.000209893
3.17666e-06
0.000209734
3.243e-06
0.000209593
3.31467e-06
0.000209475
3.39135e-06
0.000209383
3.47254e-06
0.000209321
3.55755e-06
0.000209294
3.64548e-06
0.000209305
3.73513e-06
0.00020936
3.82507e-06
0.000209464
3.91352e-06
0.000209622
3.99844e-06
0.000209839
4.07742e-06
0.000210119
4.14781e-06
0.000210467
4.20669e-06
0.000210886
4.25094e-06
0.000211378
4.27735e-06
0.000211943
4.28272e-06
0.00021258
4.264e-06
0.000213287
4.21845e-06
0.00021406
4.14383e-06
0.000214891
4.03849e-06
0.000215772
3.90157e-06
3.73296e-06
0.000216694
0.000240152
3.22874e-07
0.000240132
1.19363e-06
0.000240055
2.28445e-06
0.000239902
3.18556e-06
0.000239673
3.68033e-06
0.00023939
3.80522e-06
0.000239077
3.71719e-06
0.000238755
3.56105e-06
0.000238436
3.41842e-06
0.000238125
3.31633e-06
0.000237823
3.25299e-06
0.00023753
3.21759e-06
0.000237243
3.19979e-06
0.00023696
3.1924e-06
0.000236682
3.19111e-06
0.000236406
3.19351e-06
0.000236132
3.19823e-06
0.00023586
3.20445e-06
0.000235588
3.21158e-06
0.000235318
3.21916e-06
0.000235047
3.2268e-06
0.000234778
3.23413e-06
0.000234508
3.2408e-06
0.000234239
3.24648e-06
0.000233969
3.25089e-06
0.0002337
3.25378e-06
0.000233431
3.25493e-06
0.000233162
3.25419e-06
0.000232892
3.25148e-06
0.000232623
3.24676e-06
0.000232353
3.24006e-06
0.000232083
3.23149e-06
0.000231813
3.22118e-06
0.000231542
3.20937e-06
0.000231272
3.19629e-06
0.000231001
3.18227e-06
0.00023073
3.16764e-06
0.00023046
3.15277e-06
0.000230189
3.13805e-06
0.000229919
3.12389e-06
0.00022965
3.11067e-06
0.000229381
3.0988e-06
0.000229114
3.08866e-06
0.000228848
3.08059e-06
0.000228583
3.07492e-06
0.000228321
3.07196e-06
0.000228062
3.07195e-06
0.000227806
3.07513e-06
0.000227553
3.08168e-06
0.000227306
3.09177e-06
0.000227063
3.10552e-06
0.000226827
3.12304e-06
0.000226599
3.14438e-06
0.00022638
3.16959e-06
0.00022617
3.19865e-06
0.000225972
3.23154e-06
0.000225788
3.26814e-06
0.000225619
3.3083e-06
0.000225469
3.35178e-06
0.000225338
3.39823e-06
0.000225231
3.4472e-06
0.00022515
3.49811e-06
0.000225098
3.55021e-06
0.000225079
3.60259e-06
0.000225097
3.65415e-06
0.000225155
3.70361e-06
0.000225258
3.74946e-06
0.000225409
3.79003e-06
0.000225611
3.82342e-06
0.000225869
3.84761e-06
0.000226184
3.86042e-06
0.000226559
3.85959e-06
0.000226995
3.84286e-06
0.000227492
3.808e-06
0.00022805
3.75295e-06
0.000228666
3.67589e-06
0.000229337
3.57534e-06
0.000230059
3.45026e-06
0.000230825
3.30016e-06
0.000231629
3.12507e-06
2.92554e-06
0.000232464
0.000256974
3.21331e-07
0.000256955
1.21264e-06
0.000256883
2.35641e-06
0.000256736
3.33254e-06
0.000256514
3.90221e-06
0.000256235
4.08398e-06
0.000255924
4.02889e-06