/*--------------------------------*- C++ -*----------------------------------*\
| =========                 |                                                 |
| \\      /  F ield         | OpenFOAM: The Open Source CFD Toolbox           |
|  \\    /   O peration     | Version:  2106                                  |
|   \\  /    A nd           | Website:  www.openfoam.com                      |
|    \\/     M anipulation  |                                                 |
\*---------------------------------------------------------------------------*/
FoamFile
{
    version     2.0;
    format      ascii;
    arch        "LSB;label=32;scalar=64";
    class       volScalarField;
    location    "0.39";
    object      T;
}
// * * * * * * * * * * * * * * * * * * * * * * * * * * * * * * * * * * * * * //

dimensions      [0 0 0 1 0 0 0];

internalField   nonuniform List<scalar> 
12013
(
300
300
300
300
300
300
300
300
300
300
300
300
300
300
300.001
300.001
300.001
300.001
300.002
300.002
300.003
300.003
300.004
300.005
300.006
300.008
300.009
300.011
300.013
300.015
300.018
300.021
300.024
300.028
300.033
300.037
300.043
300.049
300.055
300.062
300.07
300.079
300.088
300.098
300.109
300.121
300.134
300.148
300.163
300.179
300.195
300.214
300.233
300.253
300.275
300.298
300.323
300.349
300.376
300.405
300.435
300.468
300.501
300.537
300.575
300.614
300.656
300.7
300.746
300.795
300.846
300.901
300.959
301.021
301.087
301.158
301.236
301.321
301.416
301.525
301.658
300
300
300
300
300
300
300
300
300
300
300
300
300
300
300.001
300.001
300.001
300.001
300.002
300.002
300.003
300.003
300.004
300.005
300.006
300.008
300.009
300.011
300.013
300.015
300.018
300.021
300.024
300.028
300.033
300.037
300.043
300.049
300.055
300.062
300.07
300.079
300.088
300.098
300.109
300.121
300.134
300.148
300.163
300.178
300.195
300.213
300.233
300.253
300.275
300.298
300.323
300.348
300.376
300.405
300.435
300.467
300.501
300.536
300.574
300.613
300.655
300.698
300.745
300.793
300.845
300.899
300.957
301.018
301.083
301.154
301.23
301.312
301.403
301.504
301.617
300
300
300
300
300
300
300
300
300
300
300
300
300
300
300.001
300.001
300.001
300.001
300.002
300.002
300.003
300.003
300.004
300.005
300.006
300.008
300.009
300.011
300.013
300.015
300.018
300.021
300.024
300.028
300.032
300.037
300.043
300.048
300.055
300.062
300.07
300.079
300.088
300.098
300.109
300.121
300.134
300.147
300.162
300.178
300.195
300.213
300.232
300.253
300.274
300.298
300.322
300.348
300.375
300.404
300.434
300.466
300.499
300.535
300.572
300.611
300.653
300.696
300.742
300.79
300.841
300.894
300.951
301.011
301.076
301.144
301.217
301.295
301.379
301.469
301.564
300
300
300
300
300
300
300
300
300
300
300
300
300
300
300.001
300.001
300.001
300.001
300.002
300.002
300.003
300.003
300.004
300.005
300.006
300.008
300.009
300.011
300.013
300.015
300.018
300.021
300.024
300.028
300.032
300.037
300.043
300.048
300.055
300.062
300.07
300.078
300.088
300.098
300.109
300.121
300.133
300.147
300.162
300.178
300.195
300.213
300.232
300.252
300.274
300.297
300.321
300.346
300.374
300.402
300.432
300.464
300.497
300.532
300.569
300.608
300.649
300.692
300.737
300.785
300.835
300.887
300.943
301.001
301.063
301.128
301.198
301.27
301.347
301.426
301.507
300
300
300
300
300
300
300
300
300
300
300
300
300
300
300.001
300.001
300.001
300.001
300.002
300.002
300.003
300.003
300.004
300.005
300.006
300.008
300.009
300.011
300.013
300.015
300.018
300.021
300.024
300.028
300.032
300.037
300.042
300.048
300.055
300.062
300.07
300.078
300.087
300.097
300.108
300.12
300.133
300.147
300.161
300.177
300.194
300.212
300.231
300.251
300.272
300.295
300.319
300.345
300.372
300.4
300.43
300.461
300.494
300.529
300.565
300.604
300.644
300.686
300.73
300.777
300.826
300.877
300.931
300.987
301.046
301.108
301.172
301.239
301.308
301.379
301.448
300
300
300
300
300
300
300
300
300
300
300
300
300
300
300.001
300.001
300.001
300.001
300.002
300.002
300.003
300.003
300.004
300.005
300.006
300.008
300.009
300.011
300.013
300.015
300.018
300.021
300.024
300.028
300.032
300.037
300.042
300.048
300.054
300.062
300.069
300.078
300.087
300.097
300.108
300.12
300.132
300.146
300.16
300.176
300.193
300.21
300.229
300.249
300.271
300.293
300.317
300.342
300.369
300.397
300.426
300.457
300.49
300.524
300.56
300.598
300.637
300.678
300.722
300.767
300.814
300.863
300.915
300.968
301.024
301.082
301.142
301.203
301.265
301.327
301.389
300
300
300
300
300
300
300
300
300
300
300
300
300
300
300.001
300.001
300.001
300.001
300.002
300.002
300.003
300.003
300.004
300.005
300.006
300.007
300.009
300.011
300.013
300.015
300.018
300.021
300.024
300.028
300.032
300.037
300.042
300.048
300.054
300.061
300.069
300.077
300.086
300.096
300.107
300.119
300.131
300.145
300.159
300.175
300.191
300.209
300.228
300.247
300.268
300.291
300.314
300.339
300.365
300.393
300.422
300.453
300.484
300.518
300.553
300.59
300.628
300.668
300.71
300.754
300.799
300.846
300.895
300.946
300.998
301.052
301.107
301.162
301.218
301.274
301.329
300
300
300
300
300
300
300
300
300
300
300
300
300
300
300.001
300.001
300.001
300.001
300.002
300.002
300.003
300.003
300.004
300.005
300.006
300.007
300.009
300.011
300.013
300.015
300.018
300.021
300.024
300.028
300.032
300.036
300.042
300.047
300.054
300.061
300.068
300.077
300.086
300.096
300.106
300.118
300.13
300.144
300.158
300.173
300.189
300.207
300.225
300.245
300.266
300.288
300.311
300.335
300.361
300.388
300.416
300.446
300.478
300.51
300.544
300.58
300.617
300.656
300.696
300.738
300.781
300.826
300.872
300.919
300.968
301.018
301.068
301.118
301.169
301.219
301.268
300
300
300
300
300
300
300
300
300
300
300
300
300
300
300.001
300.001
300.001
300.001
300.002
300.002
300.003
300.003
300.004
300.005
300.006
300.007
300.009
300.011
300.013
300.015
300.017
300.02
300.024
300.027
300.032
300.036
300.041
300.047
300.053
300.06
300.068
300.076
300.085
300.095
300.105
300.117
300.129
300.142
300.156
300.171
300.187
300.204
300.222
300.242
300.262
300.284
300.306
300.33
300.355
300.382
300.41
300.439
300.469
300.501
300.534
300.568
300.604
300.641
300.679
300.719
300.76
300.802
300.845
300.889
300.934
300.98
301.026
301.072
301.117
301.162
301.206
300
300
300
300
300
300
300
300
300
300
300
300
300
300
300.001
300.001
300.001
300.001
300.002
300.002
300.003
300.003
300.004
300.005
300.006
300.007
300.009
300.01
300.012
300.015
300.017
300.02
300.023
300.027
300.031
300.036
300.041
300.047
300.053
300.06
300.067
300.075
300.084
300.094
300.104
300.115
300.127
300.14
300.154
300.169
300.184
300.201
300.219
300.238
300.258
300.279
300.301
300.324
300.349
300.374
300.401
300.429
300.459
300.489
300.521
300.554
300.588
300.623
300.66
300.697
300.736
300.775
300.815
300.856
300.897
300.939
300.981
301.022
301.064
301.104
301.144
300
300
300
300
300
300
300
300
300
300
300
300
300
300
300.001
300.001
300.001
300.001
300.002
300.002
300.003
300.003
300.004
300.005
300.006
300.007
300.009
300.01
300.012
300.015
300.017
300.02
300.023
300.027
300.031
300.035
300.04
300.046
300.052
300.059
300.066
300.074
300.083
300.092
300.102
300.113
300.125
300.138
300.151
300.166
300.181
300.198
300.215
300.233
300.253
300.273
300.295
300.317
300.341
300.366
300.392
300.419
300.447
300.476
300.506
300.537
300.57
300.603
300.637
300.672
300.708
300.745
300.782
300.82
300.857
300.895
300.933
300.971
301.008
301.045
301.081
300
300
300
300
300
300
300
300
300
300
300
300
300
300
300.001
300.001
300.001
300.001
300.002
300.002
300.003
300.003
300.004
300.005
300.006
300.007
300.009
300.01
300.012
300.014
300.017
300.02
300.023
300.026
300.03
300.035
300.04
300.045
300.051
300.058
300.065
300.073
300.081
300.09
300.1
300.111
300.123
300.135
300.148
300.162
300.177
300.193
300.21
300.228
300.247
300.266
300.287
300.309
300.332
300.355
300.38
300.406
300.433
300.46
300.489
300.519
300.549
300.58
300.612
300.645
300.678
300.712
300.746
300.781
300.815
300.85
300.884
300.918
300.952
300.985
301.017
300
300
300
300
300
300
300
300
300
300
300
300
300
300
300.001
300.001
300.001
300.001
300.002
300.002
300.003
300.003
300.004
300.005
300.006
300.007
300.008
300.01
300.012
300.014
300.016
300.019
300.022
300.026
300.03
300.034
300.039
300.044
300.05
300.056
300.063
300.071
300.079
300.088
300.098
300.109
300.12
300.132
300.144
300.158
300.173
300.188
300.204
300.221
300.239
300.258
300.278
300.299
300.321
300.344
300.367
300.392
300.417
300.443
300.47
300.498
300.526
300.555
300.585
300.615
300.646
300.677
300.708
300.739
300.771
300.802
300.833
300.864
300.894
300.924
300.953
300
300
300
300
300
300
300
300
300
300
300
300
300
300
300
300.001
300.001
300.001
300.002
300.002
300.002
300.003
300.004
300.005
300.006
300.007
300.008
300.01
300.012
300.014
300.016
300.019
300.022
300.025
300.029
300.033
300.038
300.043
300.049
300.055
300.062
300.069
300.077
300.086
300.095
300.105
300.116
300.128
300.14
300.153
300.167
300.182
300.198
300.214
300.231
300.249
300.268
300.288
300.309
300.33
300.352
300.375
300.399
300.424
300.449
300.475
300.501
300.528
300.555
300.583
300.611
300.639
300.667
300.696
300.724
300.753
300.781
300.808
300.836
300.862
300.889
300
300
300
300
300
300
300
300
300
300
300
300
300
300
300
300.001
300.001
300.001
300.001
300.002
300.002
300.003
300.004
300.005
300.006
300.007
300.008
300.01
300.011
300.013
300.016
300.018
300.021
300.025
300.028
300.032
300.037
300.042
300.047
300.053
300.06
300.067
300.075
300.083
300.092
300.102
300.112
300.124
300.135
300.148
300.161
300.175
300.19
300.206
300.222
300.239
300.257
300.276
300.295
300.315
300.336
300.358
300.38
300.402
300.426
300.449
300.474
300.498
300.523
300.549
300.574
300.6
300.625
300.651
300.677
300.702
300.727
300.752
300.776
300.8
300.824
300
300
300
300
300
300
300
300
300
300
300
300
300
300
300
300.001
300.001
300.001
300.001
300.002
300.002
300.003
300.004
300.004
300.005
300.006
300.008
300.009
300.011
300.013
300.015
300.018
300.021
300.024
300.027
300.031
300.036
300.04
300.046
300.052
300.058
300.065
300.072
300.08
300.089
300.098
300.108
300.119
300.13
300.142
300.154
300.168
300.182
300.196
300.212
300.228
300.245
300.262
300.28
300.299
300.318
300.338
300.358
300.379
300.401
300.422
300.445
300.467
300.49
300.513
300.536
300.559
300.582
300.605
300.628
300.65
300.673
300.695
300.717
300.738
300.76
300
300
300
300
300
300
300
300
300
300
300
300
300
300
300
300.001
300.001
300.001
300.001
300.002
300.002
300.003
300.003
300.004
300.005
300.006
300.008
300.009
300.011
300.013
300.015
300.017
300.02
300.023
300.026
300.03
300.034
300.039
300.044
300.049
300.055
300.062
300.069
300.077
300.085
300.094
300.103
300.113
300.124
300.135
300.147
300.159
300.172
300.186
300.2
300.215
300.231
300.247
300.264
300.281
300.299
300.317
300.336
300.355
300.374
300.394
300.414
300.434
300.455
300.475
300.496
300.517
300.537
300.558
300.578
300.598
300.618
300.638
300.658
300.677
300.695
300
300
300
300
300
300
300
300
300
300
300
300
300
300
300
300.001
300.001
300.001
300.001
300.002
300.002
300.003
300.003
300.004
300.005
300.006
300.007
300.009
300.01
300.012
300.014
300.016
300.019
300.022
300.025
300.029
300.033
300.037
300.042
300.047
300.053
300.059
300.066
300.073
300.08
300.089
300.098
300.107
300.117
300.127
300.138
300.15
300.162
300.175
300.188
300.202
300.216
300.231
300.246
300.262
300.278
300.295
300.312
300.329
300.346
300.364
300.382
300.4
300.419
300.437
300.455
300.474
300.492
300.51
300.528
300.546
300.564
300.581
300.598
300.615
300.632
300
300
300
300
300
300
300
300
300
300
300
300
300
300
300
300.001
300.001
300.001
300.001
300.002
300.002
300.003
300.003
300.004
300.005
300.006
300.007
300.008
300.01
300.011
300.013
300.016
300.018
300.021
300.024
300.027
300.031
300.035
300.04
300.044
300.05
300.056
300.062
300.068
300.076
300.083
300.091
300.1
300.109
300.119
300.129
300.14
300.151
300.163
300.175
300.187
300.2
300.214
300.228
300.242
300.256
300.271
300.286
300.302
300.318
300.333
300.349
300.366
300.382
300.398
300.414
300.43
300.446
300.462
300.478
300.494
300.51
300.525
300.54
300.555
300.57
300
300
300
300
300
300
300
300
300
300
300
300
300
300
300
300
300.001
300.001
300.001
300.002
300.002
300.002
300.003
300.004
300.004
300.005
300.006
300.008
300.009
300.011
300.013
300.015
300.017
300.019
300.022
300.026
300.029
300.033
300.037
300.042
300.047
300.052
300.058
300.064
300.07
300.077
300.085
300.093
300.101
300.11
300.119
300.129
300.139
300.15
300.161
300.172
300.184
300.196
300.208
300.221
300.234
300.247
300.261
300.274
300.288
300.302
300.316
300.33
300.345
300.359
300.373
300.387
300.401
300.415
300.429
300.443
300.456
300.47
300.483
300.496
300.509
300
300
300
300
300
300
300
300
300
300
300
300
300
300
300
300
300.001
300.001
300.001
300.001
300.002
300.002
300.003
300.003
300.004
300.005
300.006
300.007
300.008
300.01
300.012
300.014
300.016
300.018
300.021
300.024
300.027
300.03
300.034
300.038
300.043
300.048
300.053
300.059
300.065
300.071
300.078
300.085
300.093
300.101
300.109
300.118
300.127
300.136
300.146
300.156
300.167
300.177
300.188
300.199
300.211
300.223
300.234
300.246
300.258
300.271
300.283
300.295
300.308
300.32
300.332
300.345
300.357
300.369
300.381
300.393
300.404
300.416
300.427
300.438
300.449
300
300
300
300
300
300
300
300
300
300
300
300
300
300
300
300
300.001
300.001
300.001
300.001
300.002
300.002
300.003
300.003
300.004
300.005
300.006
300.007
300.008
300.009
300.011
300.013
300.014
300.017
300.019
300.022
300.025
300.028
300.031
300.035
300.039
300.044
300.048
300.054
300.059
300.065
300.071
300.077
300.084
300.091
300.098
300.106
300.114
300.122
300.131
300.14
300.149
300.158
300.168
300.178
300.188
300.198
300.208
300.219
300.229
300.239
300.25
300.261
300.271
300.282
300.292
300.303
300.313
300.324
300.334
300.344
300.354
300.364
300.374
300.383
300.393
300
300
300
300
300
300
300
300
300
300
300
300
300
300
300
300
300
300.001
300.001
300.001
300.001
300.002
300.002
300.003
300.003
300.004
300.005
300.006
300.007
300.008
300.01
300.011
300.013
300.015
300.017
300.02
300.022
300.025
300.028
300.032
300.035
300.039
300.044
300.048
300.053
300.058
300.063
300.069
300.075
300.081
300.088
300.094
300.101
300.109
300.116
300.124
300.132
300.14
300.148
300.156
300.165
300.173
300.182
300.191
300.2
300.209
300.218
300.227
300.236
300.245
300.254
300.263
300.272
300.28
300.289
300.298
300.306
300.314
300.323
300.331
300.339
300
300
300
300
300
300
300
300
300
300
300
300
300
300
300
300
300
300.001
300.001
300.001
300.001
300.002
300.002
300.003
300.003
300.004
300.005
300.005
300.006
300.007
300.009
300.01
300.012
300.013
300.015
300.018
300.02
300.022
300.025
300.028
300.031
300.035
300.039
300.042
300.047
300.051
300.056
300.061
300.066
300.071
300.077
300.082
300.088
300.095
300.101
300.108
300.114
300.121
300.128
300.135
300.142
300.15
300.157
300.165
300.172
300.18
300.187
300.195
300.202
300.21
300.217
300.225
300.232
300.239
300.246
300.254
300.261
300.268
300.274
300.281
300.288
300
300
300
300
300
300
300
300
300
300
300
300
300
300
300
300
300
300
300.001
300.001
300.001
300.001
300.002
300.002
300.003
300.003
300.004
300.005
300.006
300.007
300.008
300.009
300.01
300.012
300.014
300.015
300.017
300.02
300.022
300.025
300.027
300.03
300.033
300.037
300.04
300.044
300.048
300.052
300.057
300.061
300.066
300.071
300.076
300.081
300.086
300.092
300.098
300.103
300.109
300.115
300.121
300.127
300.133
300.139
300.145
300.152
300.158
300.164
300.17
300.177
300.183
300.189
300.195
300.201
300.207
300.213
300.218
300.224
300.23
300.235
300.241
300
300
300
300
300
300
300
300
300
300
300
300
300
300
300
300
300
300
300.001
300.001
300.001
300.001
300.002
300.002
300.002
300.003
300.003
300.004
300.005
300.006
300.007
300.008
300.009
300.01
300.012
300.013
300.015
300.017
300.019
300.021
300.023
300.026
300.029
300.031
300.034
300.037
300.041
300.044
300.048
300.052
300.056
300.06
300.064
300.068
300.072
300.077
300.082
300.086
300.091
300.096
300.101
300.106
300.111
300.116
300.121
300.126
300.131
300.136
300.141
300.146
300.151
300.156
300.161
300.166
300.17
300.175
300.18
300.184
300.189
300.193
300.198
300
300
300
300
300
300
300
300
300
300
300
300
300
300
300
300
300
300
300
300.001
300.001
300.001
300.001
300.002
300.002
300.002
300.003
300.003
300.004
300.005
300.006
300.006
300.007
300.009
300.01
300.011
300.013
300.014
300.016
300.018
300.019
300.022
300.024
300.026
300.029
300.031
300.034
300.037
300.04
300.043
300.046
300.049
300.052
300.056
300.059
300.063
300.067
300.071
300.074
300.078
300.082
300.086
300.09
300.094
300.098
300.102
300.106
300.11
300.114
300.118
300.122
300.126
300.13
300.134
300.137
300.141
300.145
300.149
300.152
300.156
300.159
300
300
300
300
300
300
300
300
300
300
300
300
300
300
300
300
300
300
300
300
300.001
300.001
300.001
300.001
300.002
300.002
300.002
300.003
300.003
300.004
300.005
300.005
300.006
300.007
300.008
300.009
300.01
300.011
300.013
300.014
300.016
300.018
300.019
300.021
300.023
300.025
300.027
300.03
300.032
300.034
300.037
300.039
300.042
300.045
300.048
300.05
300.053
300.056
300.059
300.062
300.065
300.068
300.072
300.075
300.078
300.081
300.084
300.087
300.09
300.093
300.096
300.099
300.102
300.105
300.108
300.111
300.114
300.117
300.12
300.123
300.125
300
300
300
300
300
300
300
300
300
300
300
300
300
300
300
300
300
300
300
300
300
300.001
300.001
300.001
300.001
300.001
300.002
300.002
300.003
300.003
300.004
300.004
300.005
300.006
300.006
300.007
300.008
300.009
300.01
300.011
300.013
300.014
300.015
300.017
300.018
300.02
300.021
300.023
300.025
300.027
300.029
300.031
300.033
300.035
300.037
300.039
300.042
300.044
300.046
300.048
300.051
300.053
300.055
300.058
300.06
300.062
300.065
300.067
300.069
300.072
300.074
300.076
300.079
300.081
300.083
300.085
300.088
300.09
300.092
300.094
300.096
300
300
300
300
300
300
300
300
300
300
300
300
300
300
300
300
300
300
300
300
300
300
300
300.001
300.001
300.001
300.001
300.002
300.002
300.002
300.003
300.003
300.004
300.004
300.005
300.005
300.006
300.007
300.008
300.009
300.01
300.011
300.012
300.013
300.014
300.015
300.016
300.018
300.019
300.02
300.022
300.023
300.025
300.026
300.028
300.03
300.031
300.033
300.035
300.036
300.038
300.04
300.042
300.043
300.045
300.047
300.048
300.05
300.052
300.054
300.055
300.057
300.059
300.06
300.062
300.064
300.065
300.067
300.068
300.07
300.071
300
300
300
300
300
300
300
300
300
300
300
300
300
300
300
300
300
300
300
300
300
300
300
300
300.001
300.001
300.001
300.001
300.001
300.002
300.002
300.002
300.003
300.003
300.004
300.004
300.005
300.005
300.006
300.006
300.007
300.008
300.009
300.009
300.01
300.011
300.012
300.013
300.014
300.015
300.016
300.017
300.018
300.019
300.02
300.022
300.023
300.024
300.025
300.026
300.028
300.029
300.03
300.031
300.033
300.034
300.035
300.036
300.038
300.039
300.04
300.041
300.042
300.044
300.045
300.046
300.047
300.048
300.049
300.05
300.051
300
300
300
300
300
300
300
300
300
300
300
300
300
300
300
300
300
300
300
300
300
300
300
300
300
300
300.001
300.001
300.001
300.001
300.001
300.002
300.002
300.002
300.002
300.003
300.003
300.004
300.004
300.004
300.005
300.005
300.006
300.007
300.007
300.008
300.008
300.009
300.01
300.01
300.011
300.012
300.013
300.013
300.014
300.015
300.016
300.017
300.018
300.018
300.019
300.02
300.021
300.022
300.023
300.024
300.024
300.025
300.026
300.027
300.028
300.029
300.029
300.03
300.031
300.032
300.033
300.033
300.034
300.035
300.036
300
300
300
300
300
300
300
300
300
300
300
300
300
300
300
300
300
300
300
300
300
300
300
300
300
300
300
300
300
300.001
300.001
300.001
300.001
300.001
300.001
300.002
300.002
300.002
300.003
300.003
300.003
300.004
300.004
300.004
300.005
300.005
300.006
300.006
300.006
300.007
300.007
300.008
300.008
300.009
300.009
300.01
300.011
300.011
300.012
300.012
300.013
300.013
300.014
300.015
300.015
300.016
300.016
300.017
300.017
300.018
300.018
300.019
300.02
300.02
300.021
300.021
300.022
300.022
300.023
300.023
300.024
300
300
300
300
300
300
300
300
300
300
300
300
300
300
300
300
300
300
300
300
300
300
300
300
300
300
300
300
300
300
300
300
300.001
300.001
300.001
300.001
300.001
300.001
300.001
300.002
300.002
300.002
300.002
300.003
300.003
300.003
300.003
300.004
300.004
300.004
300.005
300.005
300.005
300.006
300.006
300.006
300.007
300.007
300.007
300.008
300.008
300.008
300.009
300.009
300.009
300.01
300.01
300.011
300.011
300.011
300.012
300.012
300.012
300.013
300.013
300.013
300.014
300.014
300.014
300.015
300.015
300
300
300
300
300
300
300
300
300
300
300
300
300
300
300
300
300
300
300
300
300
300
300
300
300
300
300
300
300
300
300
300
300
300
300
300
300
300.001
300.001
300.001
300.001
300.001
300.001
300.001
300.002
300.002
300.002
300.002
300.002
300.002
300.003
300.003
300.003
300.003
300.003
300.004
300.004
300.004
300.004
300.004
300.005
300.005
300.005
300.005
300.006
300.006
300.006
300.006
300.006
300.007
300.007
300.007
300.007
300.007
300.008
300.008
300.008
300.008
300.008
300.009
300.009
300
300
300
300
300
300
300
300
300
300
300
300
300
300
300
300
300
300
300
300
300
300
300
300
300
300
300
300
300
300
300
300
300
300
300
300
300
300
300
300
300
300
300
300.001
300.001
300.001
300.001
300.001
300.001
300.001
300.001
300.001
300.001
300.002
300.002
300.002
300.002
300.002
300.002
300.002
300.002
300.003
300.003
300.003
300.003
300.003
300.003
300.003
300.003
300.004
300.004
300.004
300.004
300.004
300.004
300.004
300.004
300.004
300.005
300.005
300.005
300
300
300
300
300
300
300
300
300
300
300
300
300
300
300
300
300
299.999
299.999
299.999
299.999
299.999
299.999
299.999
299.999
299.999
299.999
299.999
299.999
300
300
300
300
300
300
300
300
300
300
300
300
300
300
300
300
300
300
300
300
300
300
300
300
300.001
300.001
300.001
300.001
300.001
300.001
300.001
300.001
300.001
300.001
300.001
300.001
300.001
300.001
300.001
300.002
300.002
300.002
300.002
300.002
300.002
300.002
300.002
300.002
300.002
300.002
300.002
300.002
300
300
300
300
300
300
300
300
300
300
300
300
300
300
300
299.999
299.999
299.999
299.999
299.999
299.999
299.999
299.999
299.999
299.999
299.999
299.999
299.999
299.999
299.999
299.999
299.999
299.999
299.999
299.999
299.999
299.999
300
300
300
300
300
300
300
300
300
300
300
300
300
300
300
300
300
300
300
300
300
300
300
300
300
300
300
300
300
300
300
300
300
300
300
300.001
300.001
300.001
300.001
300.001
300.001
300.001
300.001
300.001
300
300
300
300
300
300
300
300
300
300
300
300
300
299.999
299.999
299.999
299.999
299.999
299.999
299.999
299.999
299.999
299.999
299.999
299.999
299.999
299.999
299.999
299.999
299.999
299.999
299.999
299.999
299.999
299.999
299.999
299.999
299.999
299.999
299.999
299.999
299.999
299.999
299.999
299.999
299.999
299.999
299.999
299.999
299.999
300
300
300
300
300
300
300
300
300
300
300
300
300
300
300
300
300
300
300
300
300
300
300
300
300
300
300
300
300
300
300
300
300
300
300
300
300
300
300
300
300
300
300
300
299.999
299.999
299.999
299.999
299.999
299.999
299.999
299.999
299.999
299.999
299.999
299.999
299.999
299.999
299.999
299.999
299.999
299.999
299.999
299.999
299.999
299.999
299.999
299.999
299.999
299.999
299.999
299.999
299.999
299.999
299.999
299.999
299.999
299.999
299.999
299.999
299.999
299.999
299.999
299.999
299.999
299.999
299.999
299.999
299.999
299.999
299.999
299.999
299.999
299.999
299.999
299.999
299.999
299.999
299.999
299.999
299.999
299.999
299.999
299.999
300
300
300
300
300
300
300
300
300
300
300
300
300
300
300
300
300
300
300
300
299.999
299.999
299.999
299.999
299.999
299.999
299.999
299.999
299.999
299.999
299.999
299.999
299.999
299.999
299.999
299.999
299.999
299.999
299.999
299.999
299.999
299.999
299.999
299.999
299.999
299.999
299.999
299.999
299.999
299.999
299.999
299.999
299.999
299.999
299.999
299.999
299.999
299.999
299.999
299.999
299.999
299.999
299.999
299.999
299.999
299.999
299.999
299.999
299.999
299.999
299.999
299.999
299.999
299.999
299.999
299.999
299.999
299.999
299.999
299.999
299.999
299.999
299.999
299.999
299.999
299.999
299.999
299.999
299.999
301.836
301.951
302.018
302.08
302.133
302.175
302.202
302.232
302.263
302.29
302.313
302.338
302.363
302.386
302.409
302.431
302.452
302.469
302.488
302.506
302.524
302.542
302.559
302.575
302.592
302.607
302.622
302.637
302.651
302.665
302.678
302.691
302.703
302.715
302.727
302.738
302.749
302.759
302.769
302.779
302.788
302.797
302.807
302.816
302.825
302.833
302.841
302.849
302.857
302.864
302.871
302.877
302.883
302.89
302.896
302.902
302.908
302.914
302.919
302.924
302.928
302.932
302.936
302.941
302.945
302.948
302.952
302.956
302.959
302.962
302.965
302.967
302.97
302.972
302.975
302.977
302.979
302.981
302.982
302.984
302.986
302.987
302.988
302.989
302.99
302.991
302.992
302.992
302.993
302.994
302.994
302.995
302.995
302.995
302.996
302.996
302.996
302.996
302.996
302.996
302.996
302.996
302.996
302.995
302.995
302.995
302.995
302.994
302.994
302.994
302.994
302.993
302.993
302.993
302.993
302.993
302.993
302.993
302.992
302.992
302.992
302.992
302.992
302.992
302.992
302.992
302.991
302.991
302.99
302.99
302.989
302.988
302.986
302.985
302.983
302.98
302.978
302.975
302.971
302.967
302.963
302.958
302.952
302.945
302.938
302.929
302.92
302.908
302.895
302.879
302.858
302.836
302.812
302.784
302.75
302.708
302.66
302.572
302.485
302.366
302.197
301.738
301.839
301.915
301.979
302.033
302.078
302.115
302.149
302.181
302.21
302.237
302.263
302.288
302.313
302.336
302.358
302.38
302.399
302.418
302.437
302.455
302.473
302.491
302.507
302.524
302.54
302.555
302.57
302.584
302.598
302.612
302.625
302.637
302.649
302.661
302.672
302.683
302.694
302.704
302.714
302.723
302.733
302.742
302.751
302.76
302.768
302.776
302.784
302.792
302.799
302.806
302.812
302.819
302.825
302.831
302.837
302.843
302.848
302.854
302.859
302.863
302.867
302.871
302.876
302.88
302.883
302.887
302.89
302.894
302.897
302.899
302.902
302.905
302.907
302.909
302.911
302.913
302.915
302.917
302.918
302.92
302.921
302.923
302.924
302.925
302.925
302.926
302.927
302.928
302.928
302.929
302.929
302.929
302.93
302.93
302.93
302.93
302.93
302.93
302.93
302.93
302.93
302.93
302.93
302.93
302.929
302.929
302.929
302.929
302.928
302.928
302.928
302.928
302.927
302.927
302.927
302.927
302.927
302.927
302.927
302.927
302.927
302.927
302.927
302.926
302.926
302.926
302.925
302.925
302.924
302.923
302.922
302.921
302.919
302.917
302.915
302.913
302.91
302.906
302.902
302.898
302.893
302.887
302.881
302.873
302.865
302.855
302.844
302.831
302.815
302.794
302.772
302.748
302.719
302.685
302.642
302.591
302.506
302.415
302.291
302.106
301.659
301.745
301.819
301.882
301.937
301.984
302.025
302.062
302.096
302.127
302.156
302.184
302.21
302.235
302.259
302.282
302.304
302.325
302.345
302.364
302.383
302.401
302.419
302.436
302.453
302.469
302.484
302.499
302.514
302.528
302.541
302.555
302.567
302.58
302.591
302.603
302.614
302.625
302.635
302.645
302.655
302.664
302.673
302.682
302.691
302.7
302.708
302.715
302.723
302.73
302.737
302.744
302.75
302.756
302.763
302.768
302.774
302.78
302.785
302.79
302.794
302.799
302.803
302.807
302.811
302.814
302.818
302.821
302.825
302.828
302.83
302.833
302.836
302.838
302.84
302.842
302.844
302.846
302.848
302.849
302.851
302.852
302.853
302.854
302.855
302.856
302.857
302.858
302.858
302.859
302.859
302.86
302.86
302.86
302.861
302.861
302.861
302.861
302.861
302.861
302.861
302.861
302.861
302.861
302.86
302.86
302.86
302.86
302.859
302.859
302.859
302.859
302.858
302.858
302.858
302.858
302.858
302.858
302.858
302.858
302.858
302.858
302.857
302.857
302.857
302.857
302.857
302.856
302.856
302.855
302.854
302.853
302.852
302.85
302.848
302.846
302.844
302.841
302.837
302.834
302.829
302.824
302.819
302.812
302.805
302.797
302.787
302.776
302.763
302.747
302.727
302.705
302.68
302.651
302.616
302.573
302.519
302.436
302.342
302.213
302.019
301.586
301.661
301.729
301.79
301.844
301.892
301.935
301.974
302.009
302.042
302.073
302.101
302.129
302.155
302.18
302.203
302.226
302.247
302.268
302.288
302.307
302.325
302.343
302.361
302.378
302.394
302.41
302.425
302.44
302.454
302.468
302.481
302.494
302.506
302.518
302.53
302.541
302.552
302.562
302.572
302.582
302.592
302.601
302.61
302.619
302.627
302.635
302.643
302.651
302.658
302.665
302.672
302.678
302.684
302.69
302.696
302.702
302.707
302.712
302.717
302.722
302.726
302.73
302.734
302.738
302.742
302.745
302.749
302.752
302.755
302.758
302.76
302.763
302.765
302.767
302.769
302.771
302.773
302.775
302.776
302.778
302.779
302.78
302.781
302.782
302.783
302.784
302.785
302.785
302.786
302.786
302.787
302.787
302.787
302.788
302.788
302.788
302.788
302.788
302.788
302.788
302.788
302.788
302.787
302.787
302.787
302.787
302.787
302.786
302.786
302.786
302.786
302.785
302.785
302.785
302.785
302.785
302.785
302.785
302.785
302.785
302.784
302.784
302.784
302.784
302.784
302.784
302.783
302.783
302.782
302.781
302.78
302.779
302.777
302.775
302.773
302.771
302.768
302.765
302.761
302.757
302.752
302.747
302.74
302.733
302.725
302.715
302.704
302.691
302.675
302.656
302.634
302.609
302.58
302.544
302.5
302.444
302.363
302.265
302.133
301.935
301.517
301.583
301.645
301.702
301.754
301.802
301.845
301.885
301.921
301.955
301.987
302.016
302.044
302.071
302.096
302.121
302.144
302.166
302.187
302.207
302.227
302.246
302.264
302.282
302.299
302.316
302.332
302.347
302.362
302.376
302.39
302.404
302.417
302.429
302.441
302.453
302.464
302.475
302.486
302.496
302.506
302.515
302.525
302.534
302.543
302.551
302.559
302.567
302.574
302.582
302.589
302.595
302.602
302.608
302.614
302.62
302.626
302.631
302.636
302.641
302.645
302.65
302.654
302.658
302.662
302.665
302.669
302.672
302.675
302.678
302.681
302.684
302.686
302.688
302.691
302.693
302.694
302.696
302.698
302.699
302.701
302.702
302.703
302.704
302.705
302.706
302.707
302.708
302.708
302.709
302.709
302.71
302.71
302.71
302.711
302.711
302.711
302.711
302.711
302.711
302.711
302.711
302.711
302.71
302.71
302.71
302.71
302.71
302.709
302.709
302.709
302.709
302.709
302.708
302.708
302.708
302.708
302.708