/*--------------------------------*- C++ -*----------------------------------*\
| =========                 |                                                 |
| \\      /  F ield         | OpenFOAM: The Open Source CFD Toolbox           |
|  \\    /   O peration     | Version:  2106                                  |
|   \\  /    A nd           | Website:  www.openfoam.com                      |
|    \\/     M anipulation  |                                                 |
\*---------------------------------------------------------------------------*/
FoamFile
{
    version     2.0;
    format      ascii;
    arch        "LSB;label=32;scalar=64";
    class       volVectorField;
    location    "0.39";
    object      U;
}
// * * * * * * * * * * * * * * * * * * * * * * * * * * * * * * * * * * * * * //

dimensions      [0 1 -1 0 0 0 0];

internalField   nonuniform List<vector> 
12013
(
(0.0999925 4.24616e-06 0)
(0.0999165 1.18438e-05 0)
(0.0997494 1.9138e-05 0)
(0.0995263 2.27187e-05 0)
(0.099295 2.23798e-05 0)
(0.0990869 2.00208e-05 0)
(0.0989093 1.75975e-05 0)
(0.0987545 1.60978e-05 0)
(0.0986114 1.56196e-05 0)
(0.0984713 1.58506e-05 0)
(0.0983299 1.6439e-05 0)
(0.0981854 1.71448e-05 0)
(0.0980377 1.785e-05 0)
(0.0978873 1.85153e-05 0)
(0.0977348 1.91398e-05 0)
(0.0975806 1.97355e-05 0)
(0.097425 2.03154e-05 0)
(0.0972682 2.08888e-05 0)
(0.0971103 2.14618e-05 0)
(0.0969515 2.20358e-05 0)
(0.0967919 2.26116e-05 0)
(0.0966316 2.31869e-05 0)
(0.0964707 2.37572e-05 0)
(0.0963094 2.43189e-05 0)
(0.0961478 2.48657e-05 0)
(0.0959862 2.53923e-05 0)
(0.0958249 2.58931e-05 0)
(0.095664 2.63629e-05 0)
(0.0955039 2.67977e-05 0)
(0.0953449 2.71941e-05 0)
(0.0951872 2.75505e-05 0)
(0.0950311 2.78661e-05 0)
(0.094877 2.8142e-05 0)
(0.0947249 2.83809e-05 0)
(0.0945753 2.85863e-05 0)
(0.0944281 2.8764e-05 0)
(0.0942836 2.89203e-05 0)
(0.0941419 2.9063e-05 0)
(0.0940029 2.92012e-05 0)
(0.0938666 2.93447e-05 0)
(0.093733 2.95041e-05 0)
(0.093602 2.96912e-05 0)
(0.0934734 2.99185e-05 0)
(0.093347 3.01994e-05 0)
(0.0932226 3.05481e-05 0)
(0.0930997 3.098e-05 0)
(0.0929781 3.15118e-05 0)
(0.0928573 3.21621e-05 0)
(0.0927368 3.29506e-05 0)
(0.0926162 3.39004e-05 0)
(0.0924948 3.50379e-05 0)
(0.0923719 3.63935e-05 0)
(0.0922469 3.80032e-05 0)
(0.0921189 3.99102e-05 0)
(0.0919869 4.21661e-05 0)
(0.0918498 4.48339e-05 0)
(0.0917063 4.79907e-05 0)
(0.0915551 5.17319e-05 0)
(0.0913943 5.61753e-05 0)
(0.091222 6.14681e-05 0)
(0.0910356 6.77953e-05 0)
(0.0908324 7.53909e-05 0)
(0.0906088 8.45536e-05 0)
(0.0903605 9.56677e-05 0)
(0.0900823 0.000109234 0)
(0.0897676 0.00012591 0)
(0.0894082 0.000146578 0)
(0.0889936 0.000172428 0)
(0.0885106 0.000205101 0)
(0.0879415 0.000246898 0)
(0.0872631 0.000301104 0)
(0.086444 0.000372506 0)
(0.0854412 0.000468225 0)
(0.0841942 0.00059909 0)
(0.0826169 0.000781932 0)
(0.080584 0.00104348 0)
(0.0779094 0.00142711 0)
(0.074299 0.00200688 0)
(0.0692951 0.00293138 0)
(0.0623581 0.00461433 0)
(0.0545335 0.0089147 0)
(0.0999937 1.28863e-05 0)
(0.0999195 3.61689e-05 0)
(0.099755 5.85516e-05 0)
(0.0995342 6.95913e-05 0)
(0.0993042 6.86266e-05 0)
(0.0990966 6.14514e-05 0)
(0.0989188 5.40517e-05 0)
(0.0987635 4.94603e-05 0)
(0.0986199 4.79874e-05 0)
(0.0984795 4.86822e-05 0)
(0.0983379 5.04724e-05 0)
(0.0981934 5.26257e-05 0)
(0.0980459 5.47794e-05 0)
(0.0978957 5.6813e-05 0)
(0.0977435 5.87235e-05 0)
(0.0975896 6.05473e-05 0)
(0.0974343 6.23237e-05 0)
(0.0972779 6.40807e-05 0)
(0.0971204 6.58359e-05 0)
(0.096962 6.75961e-05 0)
(0.0968028 6.93611e-05 0)
(0.0966429 7.11241e-05 0)
(0.0964824 7.2874e-05 0)
(0.0963215 7.45962e-05 0)
(0.0961604 7.62742e-05 0)
(0.0959992 7.78906e-05 0)
(0.0958383 7.94282e-05 0)
(0.0956778 8.0872e-05 0)
(0.0955181 8.22088e-05 0)
(0.0953594 8.34289e-05 0)
(0.095202 8.45268e-05 0)
(0.0950463 8.55008e-05 0)
(0.0948923 8.6354e-05 0)
(0.0947405 8.70945e-05 0)
(0.094591 8.77339e-05 0)
(0.0944439 8.82887e-05 0)
(0.0942994 8.87788e-05 0)
(0.0941576 8.92284e-05 0)
(0.0940185 8.96646e-05 0)
(0.093882 9.0118e-05 0)
(0.0937482 9.06213e-05 0)
(0.0936169 9.12102e-05 0)
(0.0934879 9.1923e-05 0)
(0.0933611 9.28008e-05 0)
(0.093236 9.38875e-05 0)
(0.0931126 9.52301e-05 0)
(0.0929903 9.68794e-05 0)
(0.0928688 9.88913e-05 0)
(0.0927475 0.000101328 0)
(0.0926261 0.00010426 0)
(0.0925038 0.000107766 0)
(0.09238 0.00011194 0)
(0.0922541 0.000116893 0)
(0.0921251 0.000122754 0)
(0.0919921 0.000129683 0)
(0.0918541 0.000137869 0)
(0.0917098 0.000147549 0)
(0.0915577 0.00015901 0)
(0.0913963 0.00017261 0)
(0.0912235 0.000188796 0)
(0.0910369 0.000208125 0)
(0.0908339 0.000231303 0)
(0.090611 0.000259229 0)
(0.0903642 0.000293056 0)
(0.0900886 0.000334279 0)
(0.0897779 0.000384863 0)
(0.0894245 0.000447413 0)
(0.0890191 0.000525444 0)
(0.0885493 0.00062376 0)
(0.0879997 0.000749035 0)
(0.0873502 0.000910705 0)
(0.0865743 0.00112234 0)
(0.085637 0.00140377 0)
(0.0844914 0.00178452 0)
(0.0830747 0.00230904 0)
(0.0813032 0.00304491 0)
(0.0790677 0.00409444 0)
(0.0762248 0.0056102 0)
(0.0726149 0.00781468 0)
(0.0682908 0.0109631 0)
(0.0645313 0.0149099 0)
(0.0999948 2.16064e-05 0)
(0.0999244 6.14331e-05 0)
(0.099766 9.98497e-05 0)
(0.0995508 0.000119058 0)
(0.0993244 0.000117762 0)
(0.099118 0.000105742 0)
(0.0989397 9.32008e-05 0)
(0.0987832 8.5357e-05 0)
(0.0986384 8.27911e-05 0)
(0.0984972 8.39177e-05 0)
(0.0983552 8.69239e-05 0)
(0.0982107 9.05667e-05 0)
(0.0980634 9.42247e-05 0)
(0.0979137 9.76884e-05 0)
(0.0977621 0.00010095 0)
(0.0976089 0.00010407 0)
(0.0974544 0.000107111 0)
(0.0972988 0.000110123 0)
(0.0971421 0.000113132 0)
(0.0969846 0.000116151 0)
(0.0968264 0.000119179 0)
(0.0966674 0.000122205 0)
(0.0965079 0.00012521 0)
(0.0963479 0.000128168 0)
(0.0961878 0.000131053 0)
(0.0960276 0.000133834 0)
(0.0958676 0.000136483 0)
(0.095708 0.000138973 0)
(0.0955492 0.000141282 0)
(0.0953913 0.000143395 0)
(0.0952348 0.000145302 0)
(0.0950797 0.000146999 0)
(0.0949264 0.000148494 0)
(0.0947751 0.000149798 0)
(0.094626 0.000150933 0)
(0.0944793 0.000151926 0)
(0.094335 0.000152812 0)
(0.0941933 0.000153633 0)
(0.0940541 0.000154434 0)
(0.0939175 0.000155267 0)
(0.0937834 0.000156189 0)
(0.0936516 0.000157261 0)
(0.093522 0.000158548 0)
(0.0933945 0.000160122 0)
(0.0932686 0.000162056 0)
(0.0931442 0.000164431 0)
(0.0930208 0.000167334 0)
(0.0928981 0.000170861 0)
(0.0927756 0.000175117 0)
(0.0926527 0.000180223 0)
(0.0925289 0.000186313 0)
(0.0924036 0.000193548 0)
(0.0922761 0.000202113 0)
(0.0921455 0.00021223 0)
(0.0920109 0.000224167 0)
(0.0918713 0.000238246 0)
(0.0917255 0.000254862 0)
(0.0915722 0.000274502 0)
(0.0914097 0.000297763 0)
(0.0912362 0.000325391 0)
(0.0910494 0.000358314 0)
(0.0908469 0.000397703 0)
(0.0906255 0.000445038 0)
(0.0903815 0.000502208 0)
(0.0901105 0.000571651 0)
(0.089807 0.000656534 0)
(0.0894645 0.000761029 0)
(0.0890749 0.000890686 0)
(0.0886283 0.00105299 0)
(0.0881123 0.00125816 0)
(0.0875117 0.00152034 0)
(0.0868078 0.00185931 0)
(0.0859774 0.00230306 0)
(0.0849929 0.00289139 0)
(0.0838227 0.00368082 0)
(0.0824345 0.00475058 0)
(0.0808033 0.00620712 0)
(0.0789281 0.00818112 0)
(0.0768745 0.0108019 0)
(0.0749036 0.0140764 0)
(0.0737075 0.0174067 0)
(0.0999958 3.01284e-05 0)
(0.0999312 8.7032e-05 0)
(0.0997824 0.000142276 0)
(0.0995765 0.000170549 0)
(0.0993562 0.000169582 0)
(0.0991518 0.000153024 0)
(0.0989728 0.000135374 0)
(0.0988144 0.00012417 0)
(0.0986677 0.000120375 0)
(0.0985252 0.000121831 0)
(0.0983826 0.000125997 0)
(0.0982381 0.000131116 0)
(0.0980913 0.000136294 0)
(0.0979424 0.000141225 0)
(0.0977918 0.000145887 0)
(0.0976397 0.000150357 0)
(0.0974864 0.000154724 0)
(0.0973321 0.000159053 0)
(0.0971769 0.000163383 0)
(0.0970208 0.000167729 0)
(0.0968641 0.00017209 0)
(0.0967066 0.00017645 0)
(0.0965486 0.000180782 0)
(0.0963903 0.000185052 0)
(0.0962317 0.000189218 0)
(0.0960731 0.000193239 0)
(0.0959147 0.000197076 0)
(0.0957567 0.00020069 0)
(0.0955994 0.00020405 0)
(0.095443 0.000207135 0)
(0.0952877 0.00020993 0)
(0.095134 0.000212432 0)
(0.0949818 0.000214651 0)
(0.0948315 0.000216603 0)
(0.0946833 0.00021832 0)
(0.0945373 0.00021984 0)
(0.0943936 0.000221215 0)
(0.0942522 0.000222502 0)
(0.0941132 0.000223768 0)
(0.0939766 0.000225088 0)
(0.0938423 0.000226542 0)
(0.0937102 0.000228218 0)
(0.0935801 0.00023021 0)
(0.0934517 0.000232619 0)
(0.093325 0.000235551 0)
(0.0931995 0.000239122 0)
(0.0930748 0.000243457 0)
(0.0929507 0.000248692 0)
(0.0928267 0.000254978 0)
(0.0927022 0.000262486 0)
(0.0925767 0.00027141 0)
(0.0924496 0.000281974 0)
(0.0923203 0.000294444 0)
(0.0921879 0.000309133 0)
(0.0920515 0.000326416 0)
(0.0919103 0.00034675 0)
(0.0917631 0.000370686 0)
(0.0916086 0.000398903 0)
(0.0914454 0.000432232 0)
(0.0912718 0.000471704 0)
(0.0910858 0.000518597 0)
(0.0908851 0.000574509 0)
(0.090667 0.00064145 0)
(0.0904283 0.000721961 0)
(0.0901654 0.000819287 0)
(0.0898739 0.000937596 0)
(0.0895485 0.0010823 0)
(0.0891831 0.00126047 0)
(0.0887708 0.00148146 0)
(0.0883033 0.00175772 0)
(0.0877713 0.00210596 0)
(0.0871649 0.00254872 0)
(0.086474 0.0031164 0)
(0.0856905 0.00384971 0)
(0.0848112 0.00480216 0)
(0.0838444 0.00604094 0)
(0.082821 0.00764253 0)
(0.0818108 0.00967466 0)
(0.0809463 0.0121492 0)
(0.0804478 0.0149086 0)
(0.0805862 0.0173778 0)
(0.0999968 3.81918e-05 0)
(0.0999397 0.00011222 0)
(0.0998038 0.000184882 0)
(0.0996108 0.000223308 0)
(0.0993991 0.000223757 0)
(0.0991979 0.000203386 0)
(0.0990182 0.000180907 0)
(0.0988574 0.000166311 0)
(0.0987082 0.000161118 0)
(0.0985641 0.000162717 0)
(0.0984207 0.000167904 0)
(0.0982763 0.000174415 0)
(0.0981301 0.000181082 0)
(0.0979824 0.000187481 0)
(0.0978331 0.000193568 0)
(0.0976827 0.000199429 0)
(0.0975311 0.000205169 0)
(0.0973787 0.000210869 0)
(0.0972254 0.000216576 0)
(0.0970714 0.000222308 0)
(0.0969167 0.000228064 0)
(0.0967614 0.000233822 0)
(0.0966056 0.000239548 0)
(0.0964495 0.000245195 0)
(0.0962932 0.000250714 0)
(0.0961369 0.000256049 0)
(0.0959807 0.000261149 0)
(0.0958249 0.000265966 0)
(0.0956698 0.000270461 0)
(0.0955155 0.000274604 0)
(0.0953623 0.000278379 0)
(0.0952104 0.000281782 0)
(0.09506 0.000284823 0)
(0.0949113 0.000287529 0)
(0.0947645 0.000289938 0)
(0.0946196 0.000292102 0)
(0.0944769 0.000294086 0)
(0.0943363 0.000295968 0)
(0.0941979 0.000297834 0)
(0.0940616 0.000299782 0)
(0.0939274 0.000301918 0)
(0.0937951 0.000304356 0)
(0.0936646 0.00030722 0)
(0.0935357 0.00031064 0)
(0.0934081 0.000314758 0)
(0.0932816 0.000319723 0)
(0.0931559 0.0003257 0)
(0.0930304 0.000332866 0)
(0.0929049 0.000341419 0)
(0.0927789 0.000351579 0)
(0.0926518 0.000363599 0)
(0.0925231 0.000377769 0)
(0.0923921 0.000394431 0)
(0.0922581 0.000413989 0)
(0.0921204 0.000436923 0)
(0.091978 0.000463814 0)
(0.09183 0.000495364 0)
(0.0916752 0.000532428 0)
(0.0915123 0.000576051 0)
(0.0913399 0.000627517 0)
(0.0911562 0.000688409 0)
(0.0909595 0.000760688 0)
(0.0907475 0.000846794 0)
(0.0905177 0.000949778 0)
(0.0902674 0.00107348 0)
(0.0899934 0.00122275 0)
(0.0896922 0.00140378 0)
(0.08936 0.00162447 0)
(0.0889929 0.00189499 0)
(0.0885871 0.00222843 0)
(0.0881395 0.00264174 0)
(0.0876483 0.00315666 0)
(0.0871149 0.00380091 0)
(0.0865462 0.00460897 0)
(0.0859583 0.0056219 0)
(0.0853824 0.00688453 0)
(0.0848718 0.00843648 0)
(0.0845101 0.0102917 0)
(0.0844133 0.0123985 0)
(0.0847147 0.0145727 0)
(0.0854915 0.016414 0)
(0.0999978 4.55058e-05 0)
(0.0999494 0.000136197 0)
(0.0998291 0.000226622 0)
(0.0996521 0.000276454 0)
(0.0994514 0.00027985 0)
(0.0992547 0.000256832 0)
(0.0990747 0.000230094 0)
(0.0989113 0.000212179 0)
(0.0987594 0.000205395 0)
(0.0986133 0.000206873 0)
(0.0984692 0.000212854 0)
(0.0983249 0.000220602 0)
(0.0981797 0.000228667 0)
(0.0980334 0.000236498 0)
(0.097886 0.000244006 0)
(0.0977376 0.000251276 0)
(0.0975883 0.000258421 0)
(0.0974383 0.000265531 0)
(0.0972875 0.00027266 0)
(0.0971361 0.000279827 0)
(0.0969841 0.000287029 0)
(0.0968316 0.000294239 0)
(0.0966786 0.000301415 0)
(0.0965254 0.000308501 0)
(0.0963721 0.000315436 0)
(0.0962187 0.000322153 0)
(0.0960655 0.00032859 0)
(0.0959126 0.000334691 0)
(0.0957604 0.000340406 0)
(0.0956088 0.000345702 0)
(0.0954583 0.000350558 0)
(0.0953089 0.00035497 0)
(0.0951609 0.000358953 0)
(0.0950144 0.000362538 0)
(0.0948695 0.000365773 0)
(0.0947264 0.000368723 0)
(0.0945852 0.000371468 0)
(0.0944458 0.000374104 0)
(0.0943084 0.000376738 0)
(0.0941728 0.000379491 0)
(0.094039 0.000382492 0)
(0.0939069 0.000385885 0)
(0.0937764 0.00038982 0)
(0.0936472 0.00039446 0)
(0.0935191 0.00039998 0)
(0.0933919 0.000406565 0)
(0.0932652 0.000414416 0)
(0.0931388 0.000423753 0)
(0.0930121 0.000434816 0)
(0.0928849 0.000447879 0)
(0.0927566 0.000463247 0)
(0.0926267 0.000481277 0)
(0.0924946 0.00050238 0)
(0.0923597 0.000527044 0)
(0.0922213 0.000555846 0)
(0.0920787 0.00058948 0)
(0.0919309 0.000628777 0)
(0.0917771 0.000674745 0)
(0.0916161 0.000728607 0)
(0.0914468 0.00079185 0)
(0.0912679 0.00086629 0)
(0.091078 0.000954152 0)
(0.0908755 0.00105817 0)
(0.0906588 0.0011817 0)
(0.090426 0.0013289 0)
(0.0901754 0.00150493 0)
(0.0899053 0.00171618 0)
(0.0896143 0.00197061 0)
(0.0893016 0.00227811 0)
(0.0889673 0.00265092 0)
(0.0886134 0.00310414 0)
(0.0882447 0.00365606 0)
(0.0878706 0.0043284 0)
(0.0875067 0.00514579 0)
(0.0871783 0.00613405 0)
(0.0869236 0.00731586 0)
(0.0867961 0.00870206 0)
(0.0868655 0.010276 0)
(0.087211 0.0119696 0)
(0.0878985 0.0136338 0)
(0.0889315 0.0150218 0)
(0.0999988 5.18006e-05 0)
(0.0999597 0.000158209 0)
(0.0998567 0.00026647 0)
(0.0996978 0.000329063 0)
(0.0995101 0.000337317 0)
(0.0993194 0.00031325 0)
(0.0991399 0.000283121 0)
(0.0989743 0.000262092 0)
(0.0988198 0.000253532 0)
(0.0986719 0.000254569 0)
(0.098527 0.000261038 0)
(0.0983832 0.000269796 0)
(0.0982392 0.000279115 0)
(0.0980947 0.000288298 0)
(0.0979495 0.000297194 0)
(0.0978036 0.000305867 0)
(0.0976571 0.000314431 0)
(0.0975099 0.000322975 0)
(0.0973622 0.000331556 0)
(0.0972139 0.000340193 0)
(0.0970652 0.00034888 0)
(0.0969161 0.000357585 0)
(0.0967666 0.000366257 0)
(0.0966169 0.000374833 0)
(0.0964671 0.00038324 0)
(0.0963173 0.000391402 0)
(0.0961677 0.000399248 0)
(0.0960184 0.00040671 0)
(0.0958696 0.000413736 0)
(0.0957215 0.000420283 0)
(0.0955742 0.000426331 0)
(0.095428 0.000431875 0)
(0.0952829 0.000436933 0)
(0.0951391 0.000441543 0)
(0.0949968 0.000445762 0)
(0.094856 0.000449666 0)
(0.0947167 0.000453352 0)
(0.0945791 0.000456932 0)
(0.0944431 0.000460532 0)
(0.0943086 0.000464295 0)
(0.0941757 0.000468377 0)
(0.0940442 0.000472946 0)
(0.093914 0.000478181 0)
(0.0937849 0.000484275 0)
(0.0936568 0.000491434 0)
(0.0935292 0.000499877 0)
(0.0934021 0.000509842 0)
(0.0932751 0.000521588 0)
(0.0931478 0.000535398 0)
(0.0930199 0.000551591 0)
(0.092891 0.000570525 0)
(0.0927606 0.000592611 0)
(0.0926282 0.000618327 0)
(0.0924933 0.00064823 0)
(0.0923554 0.000682981 0)
(0.0922137 0.000723363 0)
(0.0920677 0.000770312 0)
(0.0919165 0.000824949 0)
(0.0917595 0.000888623 0)
(0.0915957 0.000962956 0)
(0.0914243 0.0010499 0)
(0.0912444 0.00115182 0)
(0.0910551 0.00127157 0)
(0.0908556 0.00141258 0)
(0.0906453 0.00157903 0)
(0.0904235 0.00177593 0)
(0.0901905 0.00200936 0)
(0.0899469 0.00228658 0)
(0.0896944 0.00261627 0)
(0.0894363 0.00300868 0)
(0.0891784 0.0034757 0)
(0.0889293 0.00403074 0)
(0.0887023 0.00468832 0)
(0.0885165 0.00546291 0)
(0.0883983 0.00636674 0)
(0.0883825 0.0074059 0)
(0.0885126 0.00857394 0)
(0.0888372 0.00984256 0)
(0.0894027 0.0111502 0)
(0.090236 0.0123927 0)
(0.0913185 0.013426 0)
(0.0999997 5.68881e-05 0)
(0.0999698 0.000177666 0)
(0.0998843 0.000303555 0)
(0.0997446 0.000380261 0)
(0.0995715 0.000395547 0)
(0.0993883 0.000372374 0)
(0.0992105 0.000340009 0)
(0.0990437 0.000316233 0)
(0.0988871 0.000305757 0)
(0.0987377 0.000306007 0)
(0.0985925 0.000312609 0)
(0.0984493 0.000322093 0)
(0.0983069 0.000332473 0)
(0.0981645 0.000342889 0)
(0.0980219 0.000353108 0)
(0.097879 0.000363156 0)
(0.0977356 0.00037313 0)
(0.0975918 0.000383115 0)
(0.0974476 0.000393164 0)
(0.097303 0.000403294 0)
(0.0971581 0.000413493 0)
(0.0970128 0.000423723 0)
(0.0968673 0.000433927 0)
(0.0967217 0.000444034 0)
(0.0965759 0.000453961 0)
(0.0964303 0.000463626 0)
(0.0962848 0.000472946 0)
(0.0961396 0.000481849 0)
(0.0959948 0.000490274 0)
(0.0958506 0.000498179 0)
(0.0957072 0.000505537 0)
(0.0955646 0.000512348 0)
(0.095423 0.000518631 0)
(0.0952825 0.000524429 0)
(0.0951431 0.00052981 0)
(0.095005 0.000534861 0)
(0.0948683 0.000539691 0)
(0.0947328 0.000544429 0)
(0.0945987 0.000549221 0)
(0.0944658 0.000554229 0)
(0.0943342 0.000559631 0)
(0.0942038 0.00056562 0)
(0.0940744 0.000572402 0)
(0.0939459 0.000580196 0)
(0.0938181 0.000589239 0)
(0.0936908 0.000599781 0)
(0.0935637 0.000612093 0)
(0.0934367 0.000626469 0)
(0.0933095 0.000643229 0)
(0.0931816 0.000662733 0)
(0.0930529 0.000685382 0)
(0.0929229 0.000711634 0)
(0.0927912 0.000742018 0)
(0.0926575 0.000777146 0)
(0.0925212 0.000817738 0)
(0.0923821 0.000864639 0)
(0.0922395 0.000918852 0)
(0.092093 0.000981562 0)
(0.0919421 0.00105418 0)
(0.0917863 0.00113837 0)
(0.0916253 0.00123613 0)
(0.0914586 0.0013498 0)
(0.0912862 0.00148216 0)
(0.0911078 0.0016365 0)
(0.090924 0.00181669 0)
(0.0907355 0.00202725 0)
(0.0905436 0.00227342 0)
(0.0903508 0.00256126 0)
(0.0901606 0.0028976 0)
(0.0899784 0.00329006 0)
(0.0898117 0.00374678 0)
(0.0896708 0.00427611 0)
(0.0895699 0.00488584 0)
(0.089527 0.00558202 0)
(0.089565 0.00636705 0)
(0.0897112 0.00723693 0)
(0.089996 0.00817747 0)
(0.0904496 0.00915981 0)
(0.0910957 0.0101362 0)
(0.0919418 0.0110388 0)
(0.092967 0.0117856 0)
(0.1 6.07016e-05 0)
(0.0999789 0.000194226 0)
(0.09991 0.00033727 0)
(0.0997894 0.000429325 0)
(0.0996316 0.000453903 0)
(0.0994574 0.000433788 0)
(0.0992829 0.000400576 0)
(0.0991162 0.00037459 0)
(0.0989586 0.000362149 0)
(0.0988085 0.000361295 0)
(0.0986634 0.000367658 0)
(0.0985213 0.000377553 0)
(0.0983808 0.000388764 0)
(0.0982409 0.000400264 0)
(0.0981013 0.000411713 0)
(0.0979616 0.000423084 0)
(0.0978218 0.000434442 0)
(0.0976817 0.00044586 0)
(0.0975414 0.000457379 0)
(0.0974009 0.00046901 0)
(0.0972601 0.000480735 0)
(0.0971191 0.000492512 0)
(0.096978 0.000504275 0)
(0.0968368 0.000515945 0)
(0.0966956 0.000527435 0)
(0.0965544 0.000538653 0)
(0.0964134 0.000549511 0)
(0.0962727 0.000559932 0)
(0.0961324 0.00056985 0)
(0.0959926 0.00057922 0)
(0.0958534 0.000588016 0)
(0.0957148 0.000596237 0)
(0.0955771 0.000603906 0)
(0.0954402 0.000611074 0)
(0.0953043 0.000617812 0)
(0.0951693 0.00062422 0)
(0.0950354 0.000630419 0)
(0.0949026 0.000636552 0)
(0.0947707 0.000642779 0)
(0.0946399 0.000649284 0)
(0.0945101 0.000656262 0)
(0.0943811 0.000663927 0)
(0.094253 0.00067251 0)
(0.0941256 0.000682254 0)
(0.0939987 0.000693421 0)
(0.0938722 0.000706288 0)
(0.0937459 0.000721153 0)
(0.0936196 0.00073834 0)
(0.0934931 0.0007582 0)
(0.0933661 0.000781122 0)
(0.0932385 0.00080754 0)
(0.0931099 0.000837946 0)
(0.0929802 0.0008729 0)
(0.0928489 0.000913049 0)
(0.0927159 0.000959142 0)
(0.0925808 0.00101205 0)
(0.0924435 0.0010728 0)
(0.0923037 0.00114258 0)
(0.0921612 0.00122278 0)
(0.092016 0.00131504 0)
(0.091868 0.00142124 0)
(0.0917176 0.00154359 0)
(0.0915649 0.00168463 0)
(0.0914109 0.00184725 0)
(0.0912567 0.00203477 0)
(0.0911039 0.00225091 0)
(0.090955 0.00249981 0)
(0.0908134 0.00278596 0)
(0.0906838 0.00311413 0)
(0.0905723 0.00348916 0)
(0.0904869 0.00391566 0)
(0.0904377 0.00439756 0)
(0.0904373 0.00493739 0)
(0.0905007 0.00553531 0)
(0.0906454 0.00618783 0)
(0.0908903 0.0068862 0)
(0.0912546 0.0076146 0)
(0.0917549 0.00834846 0)
(0.0924012 0.00905363 0)
(0.0931926 0.00968759 0)
(0.0941115 0.010204 0)
(0.100001 6.33045e-05 0)
(0.0999864 0.000207839 0)
(0.0999323 0.00036735 0)
(0.0998295 0.000475761 0)
(0.0996871 0.000511788 0)
(0.0995231 0.000496951 0)
(0.0993537 0.000464431 0)
(0.0991887 0.000436942 0)
(0.0990315 0.000422621 0)
(0.0988817 0.000420417 0)
(0.0987374 0.000426201 0)
(0.0985969 0.000436193 0)
(0.0984586 0.000447992 0)
(0.0983216 0.000460402 0)
(0.0981852 0.00047297 0)
(0.0980491 0.000485592 0)
(0.0979131 0.000498293 0)
(0.0977771 0.000511119 0)
(0.097641 0.000524097 0)
(0.0975048 0.000537228 0)
(0.0973685 0.000550486 0)
(0.0972321 0.000563821 0)
(0.0970956 0.000577161 0)
(0.0969591 0.000590423 0)
(0.0968227 0.000603512 0)
(0.0966863 0.000616332 0)
(0.0965502 0.000628791 0)
(0.0964142 0.000640807 0)
(0.0962786 0.000652314 0)
(0.0961434 0.000663262 0)
(0.0960087 0.000673628 0)
(0.0958744 0.000683412 0)
(0.0957408 0.00069264 0)
(0.0956079 0.000701366 0)
(0.0954757 0.000709671 0)
(0.0953442 0.00071766 0)
(0.0952135 0.000725464 0)
(0.0950835 0.000733238 0)
(0.0949544 0.000741157 0)
(0.094826 0.000749416 0)
(0.0946983 0.000758229 0)
(0.0945714 0.000767827 0)
(0.094445 0.000778459 0)
(0.0943192 0.000790389 0)
(0.0941938 0.000803896 0)
(0.0940687 0.00081928 0)
(0.0939439 0.00083686 0)
(0.0938191 0.000856978 0)
(0.0936942 0.000880007 0)
(0.0935691 0.000906355 0)
(0.0934437 0.000936473 0)
(0.0933177 0.000970868 0)
(0.093191 0.00101011 0)
(0.0930636 0.00105485 0)
(0.0929353 0.00110584 0)
(0.0928061 0.00116394 0)
(0.0926759 0.00123012 0)
(0.0925448 0.00130554 0)
(0.0924129 0.00139149 0)
(0.0922804 0.00148947 0)
(0.0921479 0.00160117 0)
(0.0920159 0.00172851 0)
(0.0918854 0.00187362 0)
(0.0917577 0.00203887 0)
(0.0916345 0.00222685 0)
(0.0915182 0.00244031 0)
(0.0914117 0.00268215 0)
(0.091319 0.00295524 0)
(0.0912449 0.00326234 0)
(0.0911955 0.00360585 0)
(0.0911782 0.00398746 0)
(0.0912017 0.00440779 0)
(0.091276 0.00486584 0)
(0.0914124 0.00535834 0)
(0.091623 0.00587907 0)
(0.0919195 0.00641804 0)
(0.0923127 0.00696093 0)
(0.0928105 0.00748874 0)
(0.0934156 0.00797814 0)
(0.0941236 0.00840295 0)
(0.0949212 0.00873692 0)
(0.100001 6.48663e-05 0)
(0.0999921 0.00021872 0)
(0.0999502 0.000393857 0)
(0.0998633 0.00051933 0)
(0.0997357 0.000568696 0)
(0.0995827 0.000561252 0)
(0.0994201 0.000531025 0)
(0.0992586 0.000502883 0)
(0.0991033 0.000486916 0)
(0.098955 0.000483237 0)
(0.0988124 0.000488171 0)
(0.098674 0.000497977 0)
(0.0985384 0.000510126 0)
(0.0984045 0.000523272 0)
(0.0982716 0.000536833 0)
(0.0981394 0.000550623 0)
(0.0980074 0.000564612 0)
(0.0978757 0.000578812 0)
(0.097744 0.000593229 0)
(0.0976123 0.000607851 0)
(0.0974807 0.000622641 0)
(0.097349 0.000637541 0)
(0.0972173 0.000652475 0)
(0.0970857 0.000667353 0)
(0.0969542 0.000682077 0)
(0.0968228 0.000696547 0)
(0.0966916 0.000710669 0)
(0.0965606 0.000724361 0)
(0.0964298 0.000737552 0)
(0.0962993 0.000750197 0)
(0.0961692 0.000762271 0)
(0.0960395 0.000773775 0)
(0.0959102 0.000784739 0)
(0.0957814 0.000795221 0)
(0.095653 0.000805304 0)
(0.0955252 0.000815102 0)
(0.095398 0.000824751 0)
(0.0952713 0.000834414 0)
(0.0951451 0.000844276 0)
(0.0950196 0.000854543 0)
(0.0948945 0.00086544 0)
(0.09477 0.00087721 0)
(0.0946459 0.000890116 0)
(0.0945223 0.000904434 0)
(0.094399 0.000920457 0)
(0.0942761 0.000938497 0)
(0.0941535 0.000958884 0)
(0.094031 0.000981971 0)
(0.0939087 0.00100814 0)
(0.0937865 0.00103779 0)
(0.0936643 0.00107139 0)
(0.0935421 0.00110943 0)
(0.0934199 0.00115247 0)
(0.0932978 0.00120113 0)
(0.0931758 0.00125613 0)
(0.093054 0.00131826 0)
(0.0929326 0.00138843 0)
(0.092812 0.00146766 0)
(0.0926924 0.00155708 0)
(0.0925746 0.00165798 0)
(0.0924593 0.00177176 0)
(0.0923474 0.00189995 0)
(0.0922403 0.0020442 0)
(0.0921396 0.00220624 0)
(0.0920474 0.00238785 0)
(0.0919664 0.0025908 0)
(0.0918996 0.00281676 0)
(0.0918509 0.00306715 0)
(0.091825 0.00334303 0)
(0.0918271 0.00364487 0)
(0.0918634 0.00397227 0)
(0.0919408 0.00432374 0)
(0.0920665 0.00469629 0)
(0.0922483 0.00508515 0)
(0.0924936 0.00548341 0)
(0.092809 0.00588182 0)
(0.0931999 0.00626871 0)
(0.0936688 0.00663023 0)
(0.0942149 0.00695091 0)
(0.0948331 0.00721474 0)
(0.0955133 0.00740679 0)
(0.100001 6.56197e-05 0)
(0.099996 0.000227269 0)
(0.0999638 0.000417113 0)
(0.0998903 0.000560037 0)
(0.0997766 0.000624258 0)
(0.0996349 0.000626088 0)
(0.0994804 0.000599715 0)
(0.0993241 0.000571873 0)
(0.0991723 0.000554647 0)
(0.0990266 0.000549506 0)
(0.0988865 0.00055342 0)
(0.0987509 0.000562818 0)
(0.0986184 0.000575109 0)
(0.0984879 0.00058882 0)
(0.0983588 0.000603249 0)
(0.0982306 0.000618117 0)
(0.0981028 0.000633332 0)
(0.0979755 0.000648864 0)
(0.0978483 0.000664696 0)
(0.0977213 0.000680795 0)
(0.0975944 0.000697114 0)
(0.0974676 0.000713586 0)
(0.0973409 0.00073013 0)
(0.0972142 0.000746649 0)
(0.0970877 0.000763045 0)
(0.0969613 0.000779217 0)
(0.096835 0.000795069 0)
(0.0967089 0.000810518 0)
(0.096583 0.000825496 0)
(0.0964573 0.000839957 0)
(0.0963319 0.000853879 0)
(0.0962067 0.000867263 0)
(0.0960818 0.000880141 0)
(0.0959572 0.000892573 0)
(0.0958329 0.000904645 0)
(0.095709 0.000916473 0)
(0.0955854 0.000928197 0)
(0.0954622 0.000939985 0)
(0.0953394 0.000952026 0)
(0.095217 0.000964531 0)
(0.0950949 0.000977733 0)
(0.0949733 0.000991881 0)
(0.0948521 0.00100724 0)
(0.0947313 0.0010241 0)
(0.0946109 0.00104275 0)
(0.0944908 0.00106351 0)
(0.0943712 0.00108671 0)
(0.094252 0.00111269 0)
(0.0941332 0.00114184 0)
(0.0940149 0.00117454 0)
(0.0938971 0.00121122 0)
(0.09378 0.00125237 0)
(0.0936636 0.00129849 0)
(0.0935481 0.00135015 0)
(0.0934338 0.00140799 0)
(0.0933209 0.0014727 0)
(0.0932099 0.00154506 0)
(0.0931013 0.00162592 0)
(0.0929956 0.00171621 0)
(0.0928937 0.00181691 0)
(0.0927966 0.00192909 0)
(0.0927056 0.00205383 0)
(0.092622 0.00219226 0)
(0.0925478 0.00234545 0)
(0.0924851 0.0025144 0)
(0.0924365 0.00269997 0)
(0.092405 0.00290277 0)
(0.0923941 0.00312306 0)
(0.0924076 0.0033606 0)
(0.09245 0.00361454 0)
(0.0925258 0.00388322 0)
(0.0926401 0.00416399 0)
(0.0927977 0.00445309 0)
(0.0930034 0.00474546 0)
(0.0932614 0.00503471 0)
(0.0935748 0.00531314 0)
(0.0939455 0.00557184 0)
(0.0943735 0.0058011 0)
(0.0948565 0.00599085 0)
(0.0953896 0.00613138 0)
(0.0959652 0.00621417 0)
(0.100001 6.58105e-05 0)
(0.0999984 0.000233984 0)
(0.0999734 0.000437609 0)
(0.099911 0.000598073 0)
(0.0998097 0.00067825 0)
(0.0996794 0.000690924 0)
(0.0995338 0.000669848 0)
(0.0993841 0.000643304 0)
(0.0992371 0.000625336 0)
(0.0990952 0.000618888 0)
(0.0989585 0.000621727 0)
(0.0988263 0.000630571 0)
(0.0986973 0.000642842 0)
(0.0985706 0.000656972 0)
(0.0984454 0.000672152 0)
(0.0983214 0.000688009 0)
(0.098198 0.000704386 0)
(0.0980751 0.000721209 0)
(0.0979526 0.000738428 0)
(0.0978304 0.000755991 0)
(0.0977083 0.000773838 0)
(0.0975863 0.00079189 0)
(0.0974645 0.000810061 0)
(0.0973428 0.000828253 0)
(0.0972212 0.000846364 0)
(0.0970998 0.000864293 0)
(0.0969784 0.000881945 0)
(0.0968572 0.000899239 0)
(0.0967362 0.000916108 0)
(0.0966152 0.000932508 0)
(0.0964945 0.000948416 0)
(0.0963738 0.000963837 0)
(0.0962533 0.000978802 0)
(0.096133 0.000993369 0)
(0.0960129 0.00100763 0)
(0.095893 0.00102169 0)
(0.0957733 0.0010357 0)
(0.0956539 0.00104982 0)
(0.0955347 0.00106424 0)
(0.0954158 0.00107918 0)
(0.0952972 0.00109486 0)
(0.095179 0.00111154 0)
(0.0950612 0.00112947 0)
(0.0949438 0.00114895 0)
(0.0948269 0.00117026 0)
(0.0947106 0.00119371 0)
(0.0945948 0.00121961 0)
(0.0944798 0.00124829 0)
(0.0943655 0.0012801 0)
(0.0942522 0.00131542 0)
(0.09414 0.00135462 0)
(0.0940291 0.00139812 0)
(0.0939197 0.00144638 0)
(0.0938122 0.00149988 0)
(0.0937069 0.00155913 0)
(0.0936042 0.00162471 0)
(0.0935048 0.00169723 0)
(0.0934092 0.00177731 0)
(0.0933183 0.00186563 0)
(0.0932331 0.00196288 0)
(0.0931545 0.00206973 0)
(0.093084 0.00218684 0)
(0.0930232 0.0023148 0)
(0.0929737 0.00245408 0)
(0.0929378 0.00260501 0)
(0.0929177 0.00276767 0)
(0.0929161 0.00294187 0)
(0.0929358 0.00312702 0)
(0.09298 0.00332204 0)
(0.0930518 0.0035253 0)
(0.0931545 0.00373452 0)
(0.0932915 0.00394667 0)
(0.0934657 0.00415792 0)
(0.0936798 0.00436367 0)
(0.0939357 0.00455852 0)
(0.0942345 0.00473647 0)
(0.0945763 0.00489103 0)
(0.0949597 0.00501558 0)
(0.0953821 0.00510367 0)
(0.0958394 0.00514947 0)
(0.0963259 0.00514812 0)
(0.100001 6.56604e-05 0)
(0.0999998 0.000239368 0)
(0.0999797 0.0004559 0)
(0.0999263 0.000633751 0)
(0.0998359 0.000730587 0)
(0.0997165 0.000755331 0)
(0.0995804 0.000740823 0)
(0.0994383 0.000716566 0)
(0.0992972 0.000698466 0)
(0.09916 0.000690991 0)
(0.0990276 0.000692814 0)
(0.0988993 0.000701043 0)
(0.0987742 0.000713187 0)
(0.0986516 0.000727624 0)
(0.0985306 0.000743454 0)
(0.0984109 0.000760222 0)
(0.098292 0.000777703 0)
(0.0981738 0.000795776 0)
(0.0980559 0.000814358 0)
(0.0979384 0.000833376 0)
(0.0978211 0.000852751 0)
(0.0977041 0.000872397 0)
(0.0975871 0.000892221 0)
(0.0974704 0.000912121 0)
(0.0973537 0.000931996 0)
(0.0972371 0.000951743 0)
(0.0971207 0.000971272 0)
(0.0970043 0.000990502 0)
(0.096888 0.00100937 0)
(0.0967718 0.00102783 0)
(0.0966556 0.00104586 0)
(0.0965395 0.00106346 0)
(0.0964235 0.00108067 0)
(0.0963075 0.00109754 0)
(0.0961917 0.00111415 0)
(0.0960759 0.00113062 0)
(0.0959603 0.00114709 0)
(0.0958448 0.00116371 0)
(0.0957296 0.00118067 0)
(0.0956147 0.00119817 0)
(0.0955 0.00121645 0)
(0.0953857 0.00123574 0)
(0.0952719 0.0012563 0)
(0.0951586 0.00127838 0)
(0.095046 0.00130228 0)
(0.0949341 0.00132826 0)
(0.0948231 0.00135662 0)
(0.0947132 0.00138766 0)
(0.0946045 0.00142169 0)
(0.0944972 0.00145901 0)
(0.0943916 0.00149997 0)
(0.094288 0.00154489 0)
(0.0941868 0.00159414 0)
(0.0940883 0.0016481 0)
(0.0939931 0.00170715 0)
(0.0939016 0.00177169 0)
(0.0938146 0.00184215 0)
(0.0937328 0.00191892 0)
(0.0936571 0.00200242 0)
(0.0935884 0.00209301 0)
(0.0935279 0.00219101 0)
(0.0934771 0.00229667 0)
(0.0934372 0.00241009 0)
(0.09341 0.00253126 0)
(0.0933974 0.00265996 0)
(0.0934012 0.00279572 0)
(0.0934236 0.00293776 0)
(0.0934668 0.00308498 0)
(0.0935331 0.00323585 0)
(0.0936247 0.00338839 0)
(0.0937438 0.00354015 0)
(0.0938923 0.00368818 0)
(0.0940718 0.00382903 0)
(0.0942836 0.0039588 0)
(0.0945282 0.00407325 0)
(0.0948057 0.00416788 0)
(0.0951151 0.00423812 0)
(0.0954548 0.00427955 0)
(0.0958223 0.00428811 0)
(0.0962141 0.00426034 0)
(0.0966261 0.00419353 0)
(0.100001 6.53491e-05 0)
(0.1 0.000243876 0)
(0.0999837 0.000472536 0)
(0.0999372 0.000667449 0)
(0.0998563 0.000781301 0)
(0.0997472 0.000819 0)
(0.0996206 0.00081212 0)
(0.0994868 0.000791084 0)
(0.0993524 0.00077351 0)
(0.0992209 0.000765385 0)