/*--------------------------------*- C++ -*----------------------------------*\
| =========                 |                                                 |
| \\      /  F ield         | OpenFOAM: The Open Source CFD Toolbox           |
|  \\    /   O peration     | Version:  2106                                  |
|   \\  /    A nd           | Website:  www.openfoam.com                      |
|    \\/     M anipulation  |                                                 |
\*---------------------------------------------------------------------------*/
FoamFile
{
    version     2.0;
    format      ascii;
    arch        "LSB;label=32;scalar=64";
    class       surfaceScalarField;
    location    "10";
    object      phi;
}
// * * * * * * * * * * * * * * * * * * * * * * * * * * * * * * * * * * * * * //

dimensions      [1 0 -1 0 0 0 0];

oriented        oriented;

internalField   nonuniform List<scalar> 
23692
(
9.31914e-05
-1.12002e-07
9.33945e-05
-2.0311e-07
9.3679e-05
-2.84461e-07
9.40353e-05
-3.56233e-07
9.44559e-05
-4.20609e-07
9.49348e-05
-4.78915e-07
9.54669e-05
-5.32025e-07
9.60475e-05
-5.80644e-07
9.66729e-05
-6.25315e-07
9.73394e-05
-6.66473e-07
9.80439e-05
-7.04475e-07
9.87836e-05
-7.39618e-07
9.95557e-05
-7.7215e-07
0.000100358
-8.02281e-07
0.000101188
-8.3019e-07
0.000102044
-8.56032e-07
0.000102924
-8.79939e-07
0.000103826
-9.02026e-07
0.000104749
-9.22397e-07
0.00010569
-9.41136e-07
0.000106648
-9.58322e-07
0.000107623
-9.74022e-07
0.000108611
-9.88299e-07
0.000109612
-1.0012e-06
0.000110625
-1.01279e-06
0.000111648
-1.02309e-06
0.00011268
-1.03214e-06
0.00011372
-1.03999e-06
0.000114767
-1.04666e-06
0.000115819
-1.05216e-06
0.000116876
-1.05654e-06
0.000117936
-1.0598e-06
0.000118998
-1.06197e-06
0.000120061
-1.06305e-06
0.000121124
-1.06306e-06
0.000122186
-1.062e-06
0.000123246
-1.05989e-06
0.000124303
-1.05671e-06
0.000125355
-1.05247e-06
0.000126402
-1.04717e-06
0.000127443
-1.04078e-06
0.000128476
-1.03331e-06
0.000129501
-1.02473e-06
0.000130516
-1.01501e-06
0.00013152
-1.00413e-06
0.000132512
-9.9204e-07
0.000133491
-9.78706e-07
0.000134455
-9.64069e-07
0.000135403
-9.48062e-07
0.000136334
-9.3061e-07
0.000137246
-9.11616e-07
0.000138136
-8.90974e-07
0.000139005
-8.68551e-07
0.000139849
-8.44192e-07
0.000140667
-8.17714e-07
0.000141456
-7.88895e-07
0.000142213
-7.57471e-07
0.000142936
-7.23123e-07
0.000143622
-6.85468e-07
0.000144266
-6.44032e-07
0.000144864
-5.98239e-07
0.000145411
-5.47376e-07
0.000145902
-4.90551e-07
0.000146329
-4.26635e-07
0.000146683
-3.54193e-07
0.000146954
-2.7137e-07
0.00014713
-1.75731e-07
0.000147194
-6.40492e-08
0.000147126
6.8063e-08
0.000146899
2.26762e-07
0.000146478
4.20792e-07
0.000145815
6.62899e-07
0.000144843
9.72166e-07
0.000143465
1.37802e-06
0.000141538
1.92723e-06
0.000138841
2.69638e-06
0.000135027
3.81399e-06
0.000129525
5.50234e-06
0.00012135
8.17483e-06
0.000108661
1.26894e-05
2.15406e-05
8.712e-05
9.97158e-05
-2.28889e-07
9.9932e-05
-4.19235e-07
0.000100235
-5.87885e-07
0.000100616
-7.36418e-07
0.000101065
-8.69699e-07
0.000101576
-9.90394e-07
0.000102145
-1.10033e-06
0.000102765
-1.20095e-06
0.000103433
-1.2934e-06
0.000104145
-1.37857e-06
0.000104898
-1.45721e-06
0.000105688
-1.52993e-06
0.000106513
-1.59724e-06
0.000107371
-1.65958e-06
0.000108258
-1.71732e-06
0.000109173
-1.77077e-06
0.000110113
-1.82022e-06
0.000111077
-1.86591e-06
0.000112063
-1.90804e-06
0.000113068
-1.94679e-06
0.000114092
-1.98232e-06
0.000115133
-2.01478e-06
0.000116189
-2.04429e-06
0.000117259
-2.07097e-06
0.000118341
-2.0949e-06
0.000119434
-2.11618e-06
0.000120537
-2.13488e-06
0.000121648
-2.15107e-06
0.000122766
-2.16482e-06
0.000123891
-2.17618e-06
0.000125019
-2.18519e-06
0.000126151
-2.1919e-06
0.000127286
-2.19633e-06
0.000128421
-2.19853e-06
0.000129557
-2.1985e-06
0.000130691
-2.19626e-06
0.000131823
-2.19183e-06
0.000132952
-2.18521e-06
0.000134076
-2.17639e-06
0.000135194
-2.16536e-06
0.000136305
-2.1521e-06
0.000137408
-2.13659e-06
0.000138503
-2.11878e-06
0.000139586
-2.09863e-06
0.000140658
-2.07606e-06
0.000141717
-2.05102e-06
0.000142762
-2.02339e-06
0.000143791
-1.99308e-06
0.000144803
-1.95994e-06
0.000145796
-1.92381e-06
0.000146769
-1.88452e-06
0.00014772
-1.84182e-06
0.000148647
-1.79546e-06
0.000149548
-1.74512e-06
0.00015042
-1.69043e-06
0.000151262
-1.63093e-06
0.000152071
-1.56609e-06
0.000152843
-1.49527e-06
0.000153575
-1.41768e-06
0.000154264
-1.33238e-06
0.000154904
-1.23822e-06
0.00015549
-1.13374e-06
0.000156016
-1.01719e-06
0.000156476
-8.86307e-07
0.00015686
-7.38264e-07
0.000157158
-5.69404e-07
0.000157357
-3.74984e-07
0.000157442
-1.48747e-07
0.000157392
1.17679e-07
0.000157183
4.35814e-07
0.000156782
8.21783e-07
0.000156147
1.29853e-06
0.000155219
1.89938e-06
0.000153924
2.67382e-06
0.000152154
3.69666e-06
0.000149768
5.08267e-06
0.000146574
7.00813e-06
0.000142336
9.74026e-06
0.000136832
1.36783e-05
0.000130196
1.93258e-05
2.65519e-05
0.000125185
0.000106696
-3.4997e-07
0.000106925
-6.48108e-07
0.000107247
-9.1007e-07
0.000107652
-1.14093e-06
0.00010813
-1.34799e-06
0.000108675
-1.53545e-06
0.000109281
-1.70617e-06
0.000109942
-1.86242e-06
0.000110655
-2.00595e-06
0.000111415
-2.13817e-06
0.000112218
-2.26024e-06
0.000113061
-2.3731e-06
0.000113941
-2.47756e-06
0.000114856
-2.57429e-06
0.000115803
-2.66388e-06
0.000116779
-2.74681e-06
0.000117782
-2.82352e-06
0.000118811
-2.89437e-06
0.000119862
-2.9597e-06
0.000120935
-3.01978e-06
0.000122028
-3.07486e-06
0.000123138
-3.12517e-06
0.000124265
-3.17089e-06
0.000125406
-3.2122e-06
0.000126561
-3.24925e-06
0.000127727
-3.28218e-06
0.000128903
-3.31111e-06
0.000130088
-3.33614e-06
0.000131281
-3.35737e-06
0.00013248
-3.37489e-06
0.000133683
-3.38876e-06
0.000134891
-3.39905e-06
0.0001361
-3.40581e-06
0.000137311
-3.40909e-06
0.000138521
-3.40891e-06
0.00013973
-3.40531e-06
0.000140937
-3.39831e-06
0.000142139
-3.38789e-06
0.000143337
-3.37407e-06
0.000144529
-3.35682e-06
0.000145713
-3.33611e-06
0.000146888
-3.3119e-06
0.000148053
-3.28413e-06
0.000149208
-3.25273e-06
0.000150349
-3.2176e-06
0.000151477
-3.17862e-06
0.000152589
-3.13565e-06
0.000153684
-3.08852e-06
0.000154762
-3.03703e-06
0.000155819
-2.98093e-06
0.000156854
-2.91993e-06
0.000157866
-2.8537e-06
0.000158852
-2.78183e-06
0.000159811
-2.70385e-06
0.00016074
-2.61918e-06
0.000161636
-2.52715e-06
0.000162497
-2.42697e-06
0.000163319
-2.31765e-06
0.0001641
-2.19804e-06
0.000164834
-2.06673e-06
0.000165518
-1.922e-06
0.000166146
-1.76173e-06
0.000166712
-1.58333e-06
0.000167209
-1.38352e-06
0.000167629
-1.15822e-06
0.000167962
-9.02206e-07
0.000168195
-6.08768e-07
0.000168316
-2.69192e-07
0.000168306
1.27954e-07
0.000168143
5.97965e-07
0.000167803
1.16168e-06
0.000167254
1.84775e-06
0.000166458
2.69603e-06
0.000165369
3.76238e-06
0.00016394
5.12553e-06
0.000162127
6.89561e-06
0.000159913
9.2223e-06
0.000157358
1.2295e-05
0.000154725
1.63116e-05
0.000152738
2.13125e-05
2.65771e-05
0.000152713
0.000114165
-4.74958e-07
0.000114406
-8.89155e-07
0.000114747
-1.25084e-06
0.000115176
-1.56993e-06
0.000115684
-1.85601e-06
0.000116263
-2.11494e-06
0.000116908
-2.35068e-06
0.000117612
-2.56639e-06
0.00011837
-2.76451e-06
0.000119179
-2.947e-06
0.000120034
-3.11545e-06
0.000120932
-3.27117e-06
0.00012187
-3.41528e-06
0.000122845
-3.54871e-06
0.000123853
-3.67225e-06
0.000124893
-3.78661e-06
0.000125962
-3.89235e-06
0.000127058
-3.99001e-06
0.000128178
-4.08003e-06
0.000129321
-4.1628e-06
0.000130485
-4.23866e-06
0.000131668
-4.30792e-06
0.000132868
-4.37085e-06
0.000134083
-4.42768e-06
0.000135313
-4.47862e-06
0.000136554
-4.52387e-06
0.000137807
-4.56358e-06
0.000139069
-4.59792e-06
0.000140339
-4.627e-06
0.000141615
-4.65095e-06
0.000142896
-4.66986e-06
0.000144181
-4.68382e-06
0.000145468
-4.69291e-06
0.000146756
-4.69719e-06
0.000148044
-4.6967e-06
0.00014933
-4.69148e-06
0.000150613
-4.68156e-06
0.000151892
-4.66693e-06
0.000153166
-4.6476e-06
0.000154433
-4.62355e-06
0.000155691
-4.59472e-06
0.000156941
-4.56107e-06
0.000158179
-4.52253e-06
0.000159405
-4.47897e-06
0.000160618
-4.43029e-06
0.000161816
-4.37632e-06
0.000162997
-4.31686e-06
0.00016416
-4.25171e-06
0.000165304
-4.18056e-06
0.000166426
-4.10312e-06
0.000167525
-4.01898e-06
0.000168599
-3.9277e-06
0.000169646
-3.82874e-06
0.000170663
-3.72147e-06
0.000171649
-3.60513e-06
0.000172601
-3.47883e-06
0.000173516
-3.34152e-06
0.00017439
-3.19193e-06
0.00017522
-3.02854e-06
0.000176003
-2.84953e-06
0.000176734
-2.65267e-06
0.000177407
-2.43528e-06
0.000178018
-2.19405e-06
0.000178559
-1.92488e-06
0.000179024
-1.6227e-06
0.000179403
-1.28113e-06
0.000179686
-8.92085e-07
0.000179862
-4.453e-07
0.000179918
7.23608e-08
0.000179838
6.77867e-07
0.000179606
1.39336e-06
0.000179206
2.24811e-06
0.000178621
3.28051e-06
0.000177843
4.54071e-06
0.000176875
6.09331e-06
0.000175752
8.0187e-06
0.000174564
1.04097e-05
0.000173504
1.33553e-05
0.000172924
1.68919e-05
0.000173358
2.08781e-05
2.47237e-05
0.000175211
0.000122156
-6.03716e-07
0.000122409
-1.14192e-06
0.000122768
-1.60994e-06
0.000123221
-2.02346e-06
0.000123759
-2.39412e-06
0.000124374
-2.72948e-06
0.000125058
-3.03475e-06
0.000125806
-3.31401e-06
0.000126612
-3.57046e-06
0.000127471
-3.80662e-06
0.000128381
-4.02456e-06
0.000129335
-4.22601e-06
0.000130333
-4.41239e-06
0.000131369
-4.58492e-06
0.000132441
-4.74464e-06
0.000133547
-4.89244e-06
0.000134684
-5.02909e-06
0.000135849
-5.15525e-06
0.000137041
-5.27151e-06
0.000138257
-5.37836e-06
0.000139494
-5.47626e-06
0.000140752
-5.56561e-06
0.000142028
-5.64674e-06
0.00014332
-5.71997e-06
0.000144627
-5.78557e-06
0.000145947
-5.84379e-06
0.000147279
-5.89484e-06
0.00014862
-5.93891e-06
0.000149969
-5.97618e-06
0.000151325
-6.00679e-06
0.000152686
-6.03088e-06
0.000154051
-6.04855e-06
0.000155418
-6.05992e-06
0.000156786
-6.06505e-06
0.000158153
-6.064e-06
0.000159518
-6.05684e-06
0.00016088
-6.04359e-06
0.000162238
-6.02425e-06
0.000163589
-5.99883e-06
0.000164933
-5.9673e-06
0.000166268
-5.92962e-06
0.000167592
-5.88571e-06
0.000168905
-5.83547e-06
0.000170205
-5.77878e-06
0.000171491
-5.71548e-06
0.00017276
-5.64538e-06
0.000174011
-5.56824e-06
0.000175243
-5.48378e-06
0.000176454
-5.39165e-06
0.000177643
-5.29146e-06
0.000178806
-5.18273e-06
0.000179943
-5.0649e-06
0.000181052
-4.93731e-06
0.00018213
-4.79919e-06
0.000183174
-4.64961e-06
0.000184183
-4.4875e-06
0.000185153
-4.31158e-06
0.000186081
-4.12031e-06
0.000186965
-3.91189e-06
0.000187799
-3.68416e-06
0.000188581
-3.4345e-06
0.000189306
-3.15979e-06
0.000189968
-2.85621e-06
0.000190562
-2.51912e-06
0.000191082
-2.14286e-06
0.000191521
-1.72043e-06
0.000191872
-1.24318e-06
0.000192127
-7.00371e-07
0.000192279
-7.87251e-08
0.000192318
6.3823e-07
0.000192241
1.47072e-06
0.000192045
2.44426e-06
0.000191735
3.59003e-06
0.00019133
4.94529e-06
0.000190871
6.55281e-06
0.000190432
8.45796e-06
0.00019014
1.07008e-05
0.000190197
1.32982e-05
0.000190881
1.62088e-05
0.000192492
1.9267e-05
2.20877e-05
0.000195127
0.000130707
-7.36258e-07
0.000130971
-1.40604e-06
0.000131348
-1.98715e-06
0.000131826
-2.50144e-06
0.000132394
-2.96251e-06
0.000133044
-3.37955e-06
0.000133769
-3.7591e-06
0.000134561
-4.10623e-06
0.000135416
-4.42494e-06
0.000136327
-4.71836e-06
0.000137292
-4.98909e-06
0.000138305
-5.23926e-06
0.000139364
-5.47067e-06
0.000140464
-5.68484e-06
0.000141602
-5.88305e-06
0.000142776
-6.06641e-06
0.000143983
-6.23588e-06
0.00014522
-6.3923e-06
0.000146485
-6.53638e-06
0.000147775
-6.66875e-06
0.000149089
-6.78998e-06
0.000150424
-6.90056e-06
0.000151778
-7.00091e-06
0.00015315
-7.09142e-06
0.000154537
-7.17243e-06
0.000155937
-7.24426e-06
0.00015735
-7.30716e-06
0.000158772
-7.36138e-06
0.000160203
-7.40712e-06
0.000161641
-7.44459e-06
0.000163084
-7.47393e-06
0.000164531
-7.49531e-06
0.00016598
-7.50883e-06
0.00016743
-7.5146e-06
0.000168878
-7.5127e-06
0.000170325
-7.50319e-06
0.000171767
-7.48612e-06
0.000173205
-7.4615e-06
0.000174635
-7.42933e-06
0.000176058
-7.38958e-06
0.00017747
-7.3422e-06
0.000178872
-7.28711e-06
0.00018026
-7.2242e-06
0.000181635
-7.15332e-06
0.000182994
-7.07429e-06
0.000184335
-6.98687e-06
0.000185658
-6.8908e-06
0.00018696
-6.78572e-06
0.00018824
-6.67126e-06
0.000189495
-6.54694e-06
0.000190725
-6.4122e-06
0.000191926
-6.26639e-06
0.000193097
-6.10876e-06
0.000194237
-5.9384e-06
0.000195341
-5.75426e-06
0.000196409
-5.5551e-06
0.000197437
-5.33948e-06
0.000198422
-5.10567e-06
0.000199362
-4.85165e-06
0.000200253
-4.57504e-06
0.000201091
-4.27298e-06
0.000201873
-3.94209e-06
0.000202596
-3.57832e-06
0.000203253
-3.17686e-06
0.000203842
-2.73189e-06
0.000204358
-2.23644e-06
0.000204797
-1.68213e-06
0.000205156
-1.05889e-06
0.000205432
-3.54717e-07
0.000205625
4.44542e-07
0.000205741
1.35502e-06
0.000205789
2.39569e-06
0.000205792
3.58784e-06
0.000205783
4.95399e-06
0.00020582
6.51581e-06
0.000205988
8.28997e-06
0.000206408
1.02808e-05
0.000207238
1.24681e-05
0.000208659
1.47877e-05
0.000210821
1.71051e-05
1.91924e-05
0.000213716
0.000139856
-8.72697e-07
0.000140131
-1.68127e-06
0.000140526
-2.38226e-06
0.000141029
-3.00378e-06
0.000141627
-3.56124e-06
0.000142313
-4.06544e-06
0.000143078
-4.52424e-06
0.000143916
-4.94379e-06
0.00014482
-5.32888e-06
0.000145785
-5.68334e-06
0.000146806
-6.0103e-06
0.000147879
-6.31235e-06
0.000149
-6.59168e-06
0.000150166
-6.85011e-06
0.000151372
-7.08921e-06
0.000152616
-7.31033e-06
0.000153895
-7.51462e-06
0.000155206
-7.7031e-06
0.000156546
-7.87664e-06
0.000157913
-8.036e-06
0.000159305
-8.18187e-06
0.00016072
-8.31483e-06
0.000162154
-8.43541e-06
0.000163607
-8.54408e-06
0.000165076
-8.64125e-06
0.000166559
-8.72729e-06
0.000168054
-8.80254e-06
0.00016956
-8.86727e-06
0.000171075
-8.92175e-06
0.000172597
-8.96621e-06
0.000174124
-9.00085e-06
0.000175654
-9.02584e-06
0.000177187
-9.04134e-06
0.00017872
-9.04747e-06
0.000180252
-9.04434e-06
0.00018178
-9.03201e-06
0.000183305
-9.01056e-06
0.000184823
-8.98e-06
0.000186335
-8.94034e-06
0.000187837
-8.89155e-06
0.000189328
-8.83358e-06
0.000190807
-8.76635e-06
0.000192273
-8.68973e-06
0.000193723
-8.60355e-06
0.000195156
-8.50761e-06
0.000196571
-8.40166e-06
0.000197966
-8.28538e-06
0.000199339
-8.1584e-06
0.000200688
-8.02028e-06
0.000202011
-7.8705e-06
0.000203307
-7.70843e-06
0.000204574
-7.53337e-06
0.00020581
-7.34446e-06
0.000207012
-7.14073e-06
0.000208179
-6.92103e-06
0.000209308
-6.68402e-06
0.000210397
-6.42815e-06
0.000211443
-6.1516e-06
0.000212443
-5.85223e-06
0.000213396
-5.52758e-06
0.000214297
-5.17473e-06
0.000215146
-4.7903e-06
0.000215938
-4.3703e-06
0.000216671
-3.91007e-06
0.000217343
-3.40418e-06
0.000217953
-2.8463e-06
0.0002185
-2.22906e-06
0.000218985
-1.54401e-06
0.000219412
-7.8152e-07
0.000219787
6.91232e-08
0.000220123
1.01929e-06
0.000220438
2.08016e-06
0.000220763
3.26333e-06
0.000221138
4.57849e-06
0.000221623
6.03124e-06
0.000222293
7.61967e-06
0.000223244
9.32955e-06
0.000224585
1.11277e-05
0.000226418
1.29541e-05
0.000228809
1.47146e-05
1.62809e-05
0.00023172
0.000149646
-1.01322e-06
0.000149932
-1.96747e-06
0.000150345
-2.79514e-06
0.000150871
-3.53033e-06
0.0001515
-4.19031e-06
0.000152222
-4.78731e-06
0.000153029
-5.33053e-06
0.000153912
-5.8272e-06
0.000154866
-6.28298e-06
0.000155885
-6.70242e-06
0.000156964
-7.0892e-06
0.000158099
-7.44643e-06
0.000159284
-7.77666e-06
0.000160516
-8.0821e-06
0.000161791
-8.36459e-06
0.000163107
-8.62573e-06
0.000164459
-8.8669e-06
0.000165845
-9.08931e-06
0.000167263
-9.29397e-06
0.000168708
-9.48182e-06
0.00017018
-9.65365e-06
0.000171676
-9.81016e-06
0.000173192
-9.95199e-06
0.000174728
-1.00797e-05
0.000176281
-1.01937e-05
0.000177848
-1.02946e-05
0.000179428
-1.03826e-05
0.000181019
-1.04582e-05
0.000182619
-1.05216e-05
0.000184226
-1.05732e-05
0.000185839
-1.06131e-05
0.000187454
-1.06415e-05
0.000189072
-1.06588e-05
0.000190689
-1.06649e-05
0.000192305
-1.06601e-05
0.000193918
-1.06444e-05
0.000195525
-1.0618e-05
0.000197126
-1.05807e-05
0.000198718
-1.05328e-05
0.000200301
-1.04741e-05
0.000201872
-1.04046e-05
0.00020343
-1.03242e-05
0.000204973
-1.02327e-05
0.0002065
-1.01301e-05
0.000208008
-1.00161e-05
0.000209497
-9.8904e-06
0.000210964
-9.75268e-06
0.000212408
-9.60255e-06
0.000213828
-9.43953e-06
0.00021522
-9.26308e-06
0.000216584
-9.07253e-06
0.000217918
-8.86714e-06
0.00021922
-8.64601e-06
0.000220487
-8.40812e-06
0.000221718
-8.15229e-06
0.000222911
-7.87715e-06
0.000224064
-7.58112e-06
0.000225175
-7.26239e-06
0.000226242
-6.91885e-06
0.000227262
-6.5481e-06
0.000228235
-6.14737e-06
0.000229158
-5.71349e-06
0.000230031
-5.24285e-06
0.000230852
-4.73132e-06
0.000231622
-4.17427e-06
0.000232342
-3.56647e-06
0.000233015
-2.90219e-06
0.000233646
-2.17514e-06
0.000234243
-1.37867e-06
0.000234818
-5.05917e-07
0.000235388
4.49761e-07
0.000235975
1.49309e-06
0.000236611
2.62728e-06
0.000237336
3.85279e-06
0.000238202
5.16522e-06
0.000239269
6.55324e-06
0.000240602
7.99605e-06
0.000242269
9.46079e-06
0.000244323
1.09005e-05
0.000246783
1.22539e-05
1.34507e-05
0.000249613
0.000160121
-1.15806e-06
0.000160418
-2.26454e-06
0.000160849
-3.22567e-06
0.000161399
-4.08099e-06
0.000162059
-4.84966e-06
0.000162817
-5.5452e-06
0.000163664
-6.17815e-06
0.000164594
-6.7568e-06
0.000165599
-7.28773e-06
0.000166673
-7.77621e-06
0.00016781
-8.22655e-06
0.000169006
-8.64234e-06
0.000170256
-9.0266e-06
0.000171556
-9.38186e-06
0.000172902
-9.71032e-06
0.00017429
-1.00138e-05
0.000175717
-1.0294e-05
0.00017718
-1.05522e-05
0.000178676
-1.07897e-05
0.000180202
-1.10076e-05
0.000181755
-1.12067e-05
0.000183333
-1.13879e-05
0.000184933
-1.1552e-05
0.000186553
-1.16996e-05
0.00018819
-1.18312e-05
0.000189843
-1.19474e-05
0.000191509
-1.20487e-05
0.000193187
-1.21354e-05
0.000194873
-1.22079e-05
0.000196566
-1.22666e-05
0.000198265
-1.23117e-05
0.000199967
-1.23434e-05
0.00020167
-1.23621e-05
0.000203373
-1.23678e-05
0.000205074
-1.23608e-05
0.000206771
-1.23412e-05
0.000208462
-1.2309e-05
0.000210146
-1.22644e-05
0.00021182
-1.22073e-05
0.000213484
-1.21377e-05
0.000215135
-1.20556e-05
0.000216772
-1.1961e-05
0.000218393
-1.18537e-05
0.000219996
-1.17335e-05
0.000221581
-1.16002e-05
0.000223144
-1.14536e-05
0.000224684
-1.12932e-05
0.000226201
-1.11188e-05
0.000227691
-1.09298e-05
0.000229154
-1.07256e-05
0.000230587
-1.05057e-05
0.000231989
-1.02692e-05
0.000233358
-1.00152e-05
0.000234693
-9.7428e-06
0.000235991
-9.45078e-06
0.000237252
-9.13784e-06
0.000238473
-8.80247e-06
0.000239654
-8.44295e-06
0.000240792
-8.05737e-06
0.000241888
-7.64354e-06
0.000242939
-7.19903e-06
0.000243947
-6.72112e-06
0.000244911
-6.2068e-06
0.000245832
-5.65279e-06
0.000246713
-5.05553e-06
0.000247558
-4.41127e-06
0.000248372
-3.71611e-06
0.000249163
-2.96619e-06
0.000249942
-2.15787e-06
0.000250724
-1.28798e-06
0.000251528
-3.54023e-07
0.000252377
6.44563e-07
0.000253299
1.70517e-06
0.000254329
2.82234e-06
0.000255507
3.98682e-06
0.000256876
5.18419e-06
0.000258478
6.39392e-06
0.00026035
7.58881e-06
0.000262515
8.73535e-06
0.000264974
9.79541e-06
1.07305e-05
0.000267694
0.00017133
-1.30743e-06
0.000171638
-2.57249e-06
0.000172086
-3.6738e-06
0.000172661
-4.65563e-06
0.00017335
-5.53916e-06
0.000174144
-6.33906e-06
0.000175033
-7.0671e-06
0.000176009
-7.7327e-06
0.000177065
-8.34334e-06
0.000178194
-8.90505e-06
0.00017939
-9.42277e-06
0.000180648
-9.90063e-06
0.000181964
-1.03421e-05
0.000183332
-1.07501e-05
0.000184749
-1.11272e-05
0.000186211
-1.14754e-05
0.000187714
-1.17967e-05
0.000189254
-1.20927e-05
0.00019083
-1.23648e-05
0.000192436
-1.26142e-05
0.000194072
-1.28419e-05
0.000195733
-1.30491e-05
0.000197417
-1.32364e-05
0.000199122
-1.34046e-05
0.000200846
-1.35545e-05
0.000202585
-1.36866e-05
0.000204338
-1.38015e-05
0.000206102
-1.38996e-05
0.000207876
-1.39813e-05
0.000209656
-1.40471e-05
0.000211442
-1.40972e-05
0.000213231
-1.4132e-05
0.00021502
-1.41517e-05
0.000216809
-1.41566e-05
0.000218595
-1.41469e-05
0.000220377
-1.41226e-05
0.000222152
-1.4084e-05
0.000223919
-1.4031e-05
0.000225675
-1.39639e-05
0.00022742
-1.38825e-05
0.000229151
-1.37869e-05
0.000230868
-1.3677e-05
0.000232567
-1.35527e-05
0.000234247
-1.34138e-05
0.000235907
-1.32602e-05
0.000237545
-1.30915e-05
0.000239159
-1.29075e-05
0.000240748
-1.27078e-05
0.00024231
-1.24918e-05
0.000243844
-1.22592e-05
0.000245347
-1.20091e-05
0.000246819
-1.17411e-05
0.000248258
-1.14541e-05
0.000249663
-1.11473e-05
0.000251031
-1.08196e-05
0.000252363
-1.04698e-05
0.000253658
-1.00967e-05
0.000254913
-9.69861e-06
0.00025613
-9.27402e-06
0.000257307
-8.82111e-06
0.000258446
-8.33791e-06
0.000259547
-7.82236e-06
0.000260613
-7.27223e-06
0.000261645
-6.68524e-06
0.000262649
-6.05909e-06
0.000263629
-5.39155e-06
0.000264594
-4.68062e-06
0.000265552
-3.92467e-06
0.000266517
-3.12267e-06
0.000267503
-2.27446e-06
0.00026853
-1.38101e-06
0.000269619
-4.44426e-07
0.000270794
5.30468e-07
0.00027208
1.53566e-06
0.000273508
2.55961e-06
0.000275103
3.58867e-06
0.000276891
4.6054e-06
0.000278891
5.58941e-06
0.000281108
6.51808e-06
0.000283535
7.36824e-06
8.11903e-06
0.000286147
0.000183324
-1.46155e-06
0.000183643
-2.89129e-06
0.000184108
-4.13945e-06
0.000184707
-5.25412e-06
0.000185426
-6.25863e-06
0.000186256
-7.1687e-06
0.000187186
-7.99726e-06
0.000188208
-8.75483e-06
0.000189315
-9.44981e-06
0.000190499
-1.0089e-05
0.000191754
-1.0678e-05
0.000193075
-1.12215e-05
0.000194457
-1.17234e-05
0.000195894
-1.21872e-05
0.000197382
-1.26155e-05
0.000198918
-1.30109e-05
0.000200497
-1.33756e-05
0.000202115
-1.37113e-05
0.00020377
-1.40196e-05
0.000205458
-1.43021e-05
0.000207176
-1.45598e-05
0.000208921
-1.4794e-05
0.00021069
-1.50055e-05
0.000212481
-1.51953e-05
0.000214291
-1.53641e-05
0.000216117
-1.55125e-05
0.000217957
-1.56413e-05
0.000219808
-1.5751e-05
0.000221669
-1.5842e-05
0.000223537
-1.59148e-05
0.00022541
-1.59698e-05
0.000227285
-1.60073e-05
0.000229161
-1.60277e-05
0.000231036
-1.60312e-05
0.000232907
-1.60181e-05
0.000234773
-1.59885e-05
0.000236632
-1.59426e-05
0.000238481
-1.58806e-05
0.00024032
-1.58024e-05
0.000242146
-1.57083e-05
0.000243957
-1.55981e-05
0.000245752
-1.54719e-05
0.000247529
-1.53295e-05
0.000249286
-1.51709e-05
0.000251022
-1.49959e-05
0.000252734
-1.48043e-05
0.000254423
-1.45957e-05
0.000256085
-1.43698e-05
0.000257719
-1.41263e-05
0.000259325
-1.38646e-05
0.0002609
-1.35843e-05
0.000262443
-1.32846e-05
0.000263954
-1.29649e-05
0.000265431
-1.26243e-05
0.000266874
-1.22621e-05
0.000268281
-1.18771e-05
0.000269653
-1.14684e-05
0.000270989
-1.10348e-05
0.00027229
-1.0575e-05
0.000273556
-1.00877e-05
0.00027479
-9.57164e-06
0.000275993
-9.02538e-06
0.000277168
-8.44763e-06
0.00027832
-7.83713e-06
0.000279454
-7.19284e-06
0.000280576
-6.51398e-06
0.000281696
-5.80017e-06
0.000282823
-5.05163e-06
0.000283969
-4.26931e-06
0.00028515
-3.45515e-06
0.000286381
-2.61222e-06
0.000287682
-1.74487e-06
0.000289071
-8.58595e-07
0.000290567
3.91835e-08
0.000292189
9.37991e-07
0.000293951
1.82583e-06
0.000295868
2.6884e-06
0.000297946
3.51154e-06
0.000300184
4.28055e-06
0.00030257
4.9815e-06
5.60324e-06
0.000305086
0.000196157
-1.62059e-06
0.000196487
-3.22096e-06
0.00019697
-4.62247e-06
0.000197592
-5.87626e-06
0.000198341
-7.00778e-06
0.000199207
-8.0338e-06
0.000200178
-8.9683e-06
0.000201246
-9.82287e-06
0.000202403
-1.06069e-05
0.000203642
-1.13278e-05
0.000204956
-1.1992e-05
0.000206339
-1.26048e-05
0.000207786
-1.31705e-05
0.000209292
-1.36929e-05
0.000210852
-1.41752e-05
0.000212461
-1.46202e-05
0.000214116
-1.50304e-05
0.000215813
-1.54078e-05
0.000217547
-1.57542e-05
0.000219317
-1.60712e-05
0.000221117
-1.63602e-05
0.000222946
-1.66225e-05
0.0002248
-1.68592e-05
0.000226676
-1.70713e-05
0.000228571
-1.72595e-05
0.000230484
-1.74248e-05
0.00023241
-1.75678e-05
0.000234349
-1.76892e-05
0.000236296
-1.77895e-05
0.000238251
-1.78692e-05
0.00024021
-1.79288e-05
0.000242172
-1.79687e-05
0.000244133
-1.79893e-05
0.000246093
-1.79909e-05
0.000248049
-1.79737e-05
0.000249998
-1.7938e-05
0.00025194
-1.78841e-05
0.000253872
-1.78121e-05
0.000255791
-1.77221e-05
0.000257697
-1.76142e-05
0.000259588
-1.74885e-05
0.000261461
-1.7345e-05
0.000263315
-1.71837e-05
0.000265149
-1.70044e-05
0.00026696
-1.68071e-05
0.000268747
-1.65917e-05
0.00027051
-1.63578e-05
0.000272245
-1.61053e-05
0.000273953
-1.58338e-05
0.000275631
-1.5543e-05
0.000277279
-1.52323e-05
0.000278896
-1.49015e-05
0.000280481
-1.45498e-05
0.000282033
-1.41767e-05
0.000283553
-1.37815e-05
0.000285039
-1.33636e-05
0.000286493
-1.29222e-05
0.000287915
-1.24566e-05
0.000289306
-1.19659e-05
0.000290667
-1.14495e-05
0.000292002
-1.09066e-05
0.000293314
-1.03366e-05
0.000294605
-9.73914e-06
0.000295882
-9.11389e-06
0.00029715
-8.46091e-06
0.000298416
-7.78061e-06
0.00029969
-7.07393e-06
0.000300981
-6.34237e-06
0.0003023
-5.58819e-06
0.000303659
-4.81451e-06
0.000305072
-4.02539e-06
0.000306553
-3.22593e-06
0.000308117
-2.42224e-06
0.000309777
-1.62139e-06
0.000311546
-8.3063e-07
0.000313431
-5.89801e-08
0.000315436
6.83085e-07
0.000317562
1.38577e-06
0.000319803
2.03938e-06
0.000322149
2.63533e-06
3.16779e-06
0.000324584
0.000209889
-1.78466e-06
0.00021023
-3.56142e-06
0.00021073
-5.12266e-06
0.000211375
-6.52173e-06
0.000212154
-7.7862e-06
0.000213054
-8.93385e-06
0.000214065
-9.97965e-06
0.000215179
-1.09362e-05
0.000216386
-1.18138e-05
0.000217679
-1.26208e-05
0.000219051
-1.33642e-05
0.000220496
-1.40498e-05
0.000222008
-1.46825e-05
0.000223582
-1.52666e-05
0.000225213
-1.58056e-05
0.000226895
-1.63027e-05
0.000228626
-1.67606e-05
0.000230399
-1.71816e-05
0.000232213
-1.75677e-05
0.000234063
-1.79208e-05
0.000235945
-1.82424e-05
0.000237857
-1.85339e-05
0.000239794
-1.87967e-05
0.000241755
-1.90317e-05
0.000243735
-1.924e-05
0.000245733
-1.94225e-05
0.000247745
-1.958e-05
0.000249769
-1.97132e-05
0.000251803
-1.98227e-05
0.000253843
-1.99092e-05
0.000255887
-1.99731e-05
0.000257934
-2.0015e-05
0.00025998
-2.00352e-05
0.000262023
-2.00343e-05
0.000264062
-2.00124e-05
0.000266094
-1.99699e-05
0.000268117
-1.99072e-05
0.000270129
-1.98243e-05
0.000272129
-1.97215e-05
0.000274114
-1.9599e-05
0.000276082
-1.94569e-05
0.000278033
-1.92952e-05
0.000279963
-1.9114e-05
0.000281872
-1.89133e-05
0.000283758
-1.86931e-05
0.00028562
-1.84533e-05
0.000287456
-1.81937e-05
0.000289265
-1.79143e-05
0.000291046
-1.76148e-05
0.000292798
-1.72949e-05
0.00029452
-1.69545e-05
0.000296212
-1.65933e-05
0.000297873
-1.62109e-05
0.000299503
-1.58069e-05
0.000301102
-1.5381e-05
0.000302672
-1.49328e-05
0.000304211
-1.4462e-05
0.000305723
-1.39683e-05
0.000307209
-1.34514e-05
0.00030867
-1.2911e-05
0.000310111
-1.23473e-05
0.000311534
-1.17602e-05
0.000312945
-1.11501e-05
0.000314349
-1.05175e-05
0.000315751
-9.86341e-06
0.00031716
-9.18911e-06
0.000318582
-8.4964e-06
0.000320027
-7.78758e-06
0.000321505
-7.06558e-06
0.000323024
-6.33399e-06
0.000324596
-5.59707e-06
0.00032623
-4.85976e-06
0.000327935
-4.12763e-06
0.00032972
-3.40677e-06
0.000331593
-2.70363e-06
0.000333559
-2.02491e-06
0.000335618
-1.3764e-06
0.000337769
-7.64521e-07
0.000340003
-1.95075e-07
0.000342311
3.26971e-07
7.98503e-07
0.000344681
0.000224582
-1.95378e-06
0.000224933
-3.91254e-06
0.00022545
-5.63967e-06
0.000226119
-7.19002e-06
0.000226926
-8.59322e-06
0.00022786
-9.86807e-06
0.000228911
-1.10304e-05
0.000230069
-1.20939e-05
0.000231325
-1.30697e-05
0.000232671
-1.3967e-05
0.0002341
-1.47934e-05
0.000235606
-1.55554e-05
0.000237182
-1.62584e-05
0.000238822
-1.69071e-05
0.000240522
-1.75055e-05
0.000242277
-1.8057e-05
0.000244081
-1.85647e-05
0.000245931
-1.90312e-05
0.000247822
-1.94587e-05
0.000249751
-1.98493e-05
0.000251713
-2.02047e-05
0.000253706
-2.05266e-05
0.000255725
-2.08162e-05
0.000257769
-2.10749e-05
0.000259833
-2.13037e-05
0.000261914
-2.15038e-05
0.00026401
-2.16759e-05
0.000266118
-2.18209e-05
0.000268235
-2.19396e-05
0.000270358
-2.20326e-05
0.000272486
-2.21005e-05
0.000274615
-2.21439e-05
0.000276743
-2.21633e-05
0.000278868
-2.21592e-05
0.000280988
-2.2132e-05
0.0002831
-2.2082e-05
0.000285203
-2.20096e-05
0.000287294
-2.19151e-05
0.000289371
-2.17988e-05
0.000291433
-2.16608e-05
0.000293477
-2.15015e-05
0.000295503
-2.13209e-05
0.000297508
-2.11191e-05
0.000299491
-2.08964e-05
0.000301451
-2.06528e-05
0.000303386
-2.03882e-05
0.000305295
-2.01028e-05
0.000307177
-1.97964e-05
0.000309032
-1.94692e-05
0.000310858
-1.91209e-05
0.000312655
-1.87517e-05
0.000314423
-1.83613e-05
0.000316162
-1.79497e-05
0.000317872
-1.75169e-05
0.000319554
-1.70628e-05
0.000321209
-1.65874e-05
0.000322837
-1.60908e-05
0.000324442
-1.5573e-05
0.000326025
-1.50343e-05
0.000327589
-1.44751e-05
0.000329138
-1.38959e-05
0.000330675
-1.32974e-05
0.000332205
-1.26805e-05
0.000333734
-1.20464e-05
0.000335267
-1.13967e-05
0.000336811
-1.07332e-05
0.000338373
-1.00582e-05
0.00033996
-9.37451e-06
0.00034158
-8.68511e-06
0.000343239
-7.99361e-06
0.000344946
-7.30397e-06
0.000346707
-6.62055e-06
0.000348527
-5.94799e-06
0.000350411
-5.29112e-06
0.000352363
-4.65484e-06
0.000354382
-4.04398e-06
0.000356468
-3.463e-06
0.00035862
-2.91609e-06
0.000360831
-2.4067e-06
0.000363095
-1.93683e-06
-1.50746e-06
0.000365401
0.000240304
-2.1279e-06
0.000240665
-4.27406e-06
0.000241199
-6.17295e-06
0.000241889
-7.88039e-06
0.000242724
-9.4279e-06
0.000243691
-1.08353e-05
0.00024478
-1.21193e-05
0.000245981
-1.32945e-05
0.000247284
-1.4373e-05
0.000248682
-1.53647e-05
0.000250166
-1.62779e-05
0.000251731
-1.71197e-05
0.000253369
-1.78962e-05
0.000255074
-1.86123e-05
0.000256841
-1.92727e-05
0.000258666
-1.9881e-05
0.000260542
-2.04406e-05
0.000262465
-2.09544e-05
0.000264431
-2.14249e-05
0.000266436
-2.18544e-05
0.000268477
-2.22448e-05
0.000270548
-2.25978e-05
0.000272647
-2.29151e-05
0.00027477
-2.31981e-05
0.000276915
-2.34479e-05
0.000279077
-2.36658e-05
0.000281254
-2.38527e-05
0.000283442
-2.40095e-05
0.00028564
-2.41372e-05
0.000287844
-2.42365e-05
0.000290052
-2.4308e-05
0.000292261
-2.43525e-05
0.000294468
-2.43706e-05
0.000296672
-2.43627e-05
0.000298869
-2.43294e-05
0.000301058
-2.42712e-05
0.000303237
-2.41884e-05
0.000305404
-2.40816e-05
0.000307556
-2.39509e-05
0.000309692
-2.37968e-05
0.000311811
-2.36196e-05
0.000313909
-2.34195e-05
0.000315987
-2.31967e-05
0.000318042
-2.29516e-05
0.000320074