/*--------------------------------*- C++ -*----------------------------------*\
| =========                 |                                                 |
| \\      /  F ield         | OpenFOAM: The Open Source CFD Toolbox           |
|  \\    /   O peration     | Version:  2106                                  |
|   \\  /    A nd           | Website:  www.openfoam.com                      |
|    \\/     M anipulation  |                                                 |
\*---------------------------------------------------------------------------*/
FoamFile
{
    version     2.0;
    format      ascii;
    arch        "LSB;label=32;scalar=64";
    class       volScalarField;
    location    "10";
    object      T;
}
// * * * * * * * * * * * * * * * * * * * * * * * * * * * * * * * * * * * * * //

dimensions      [0 0 0 1 0 0 0];

internalField   nonuniform List<scalar> 
12013
(
300.004
300.011
300.019
300.027
300.036
300.044
300.054
300.063
300.073
300.083
300.094
300.104
300.116
300.127
300.139
300.152
300.165
300.178
300.192
300.206
300.221
300.236
300.251
300.267
300.284
300.301
300.318
300.336
300.355
300.374
300.394
300.414
300.435
300.456
300.478
300.501
300.524
300.548
300.572
300.598
300.624
300.65
300.678
300.706
300.735
300.765
300.795
300.827
300.859
300.893
300.927
300.962
300.998
301.035
301.073
301.113
301.153
301.195
301.238
301.282
301.328
301.375
301.423
301.474
301.525
301.579
301.634
301.692
301.752
301.814
301.879
301.947
302.018
302.093
302.172
302.256
302.346
302.444
302.553
302.676
302.823
300.004
300.011
300.019
300.027
300.036
300.044
300.054
300.063
300.073
300.083
300.094
300.104
300.116
300.127
300.139
300.152
300.165
300.178
300.192
300.206
300.221
300.236
300.251
300.267
300.284
300.301
300.318
300.336
300.355
300.374
300.394
300.414
300.435
300.456
300.478
300.501
300.524
300.548
300.572
300.598
300.624
300.65
300.678
300.706
300.735
300.765
300.795
300.827
300.859
300.892
300.927
300.962
300.998
301.035
301.073
301.113
301.153
301.195
301.238
301.282
301.327
301.374
301.423
301.473
301.525
301.578
301.634
301.691
301.751
301.813
301.877
301.945
302.015
302.09
302.168
302.251
302.34
302.436
302.54
302.654
302.781
300.004
300.011
300.019
300.027
300.036
300.044
300.054
300.063
300.073
300.083
300.094
300.104
300.116
300.127
300.139
300.152
300.165
300.178
300.192
300.206
300.221
300.236
300.251
300.267
300.284
300.301
300.318
300.336
300.355
300.374
300.394
300.414
300.435
300.456
300.478
300.501
300.524
300.548
300.572
300.598
300.623
300.65
300.678
300.706
300.735
300.765
300.795
300.827
300.859
300.892
300.926
300.961
300.997
301.035
301.073
301.112
301.152
301.194
301.237
301.281
301.326
301.373
301.422
301.472
301.523
301.576
301.632
301.689
301.748
301.81
301.874
301.94
302.01
302.083
302.16
302.241
302.327
302.419
302.516
302.619
302.726
300.004
300.011
300.019
300.027
300.036
300.044
300.054
300.063
300.073
300.083
300.093
300.104
300.116
300.127
300.139
300.152
300.165
300.178
300.192
300.206
300.221
300.236
300.251
300.267
300.284
300.301
300.318
300.336
300.355
300.374
300.393
300.414
300.434
300.456
300.478
300.5
300.524
300.548
300.572
300.597
300.623
300.65
300.677
300.706
300.734
300.764
300.795
300.826
300.858
300.892
300.926
300.961
300.997
301.034
301.072
301.111
301.151
301.193
301.236
301.28
301.325
301.372
301.42
301.469
301.521
301.574
301.628
301.685
301.744
301.804
301.868
301.933
302.002
302.073
302.148
302.226
302.308
302.394
302.483
302.575
302.669
300.004
300.011
300.019
300.027
300.036
300.044
300.054
300.063
300.073
300.083
300.093
300.104
300.116
300.127
300.139
300.152
300.165
300.178
300.192
300.206
300.221
300.236
300.251
300.267
300.284
300.301
300.318
300.336
300.355
300.374
300.393
300.414
300.434
300.456
300.478
300.5
300.523
300.547
300.572
300.597
300.623
300.65
300.677
300.705
300.734
300.764
300.794
300.826
300.858
300.891
300.925
300.96
300.996
301.033
301.071
301.11
301.15
301.191
301.234
301.278
301.323
301.369
301.417
301.466
301.517
301.569
301.623
301.679
301.737
301.797
301.859
301.924
301.99
302.06
302.131
302.206
302.283
302.363
302.445
302.528
302.61
300.004
300.011
300.019
300.027
300.036
300.044
300.054
300.063
300.073
300.083
300.093
300.104
300.116
300.127
300.139
300.152
300.165
300.178
300.192
300.206
300.221
300.236
300.251
300.267
300.284
300.301
300.318
300.336
300.355
300.374
300.393
300.413
300.434
300.456
300.477
300.5
300.523
300.547
300.572
300.597
300.623
300.649
300.677
300.705
300.734
300.763
300.794
300.825
300.857
300.89
300.924
300.959
300.995
301.031
301.069
301.108
301.148
301.189
301.231
301.275
301.319
301.365
301.413
301.462
301.512
301.564
301.617
301.672
301.729
301.787
301.848
301.911
301.975
302.042
302.11
302.181
302.253
302.327
302.402
302.477
302.551
300.004
300.011
300.019
300.027
300.036
300.044
300.054
300.063
300.073
300.083
300.093
300.104
300.116
300.127
300.139
300.152
300.165
300.178
300.192
300.206
300.22
300.236
300.251
300.267
300.283
300.3
300.318
300.336
300.354
300.373
300.393
300.413
300.434
300.455
300.477
300.5
300.523
300.547
300.571
300.596
300.622
300.649
300.676
300.704
300.733
300.762
300.793
300.824
300.856
300.889
300.922
300.957
300.993
301.029
301.067
301.106
301.145
301.186
301.228
301.271
301.315
301.361
301.408
301.456
301.505
301.556
301.609
301.663
301.718
301.775
301.834
301.894
301.956
302.02
302.085
302.152
302.219
302.288
302.356
302.424
302.491
300.004
300.011
300.019
300.027
300.036
300.044
300.053
300.063
300.073
300.083
300.093
300.104
300.116
300.127
300.139
300.152
300.165
300.178
300.192
300.206
300.22
300.235
300.251
300.267
300.283
300.3
300.318
300.336
300.354
300.373
300.393
300.413
300.434
300.455
300.477
300.499
300.523
300.546
300.571
300.596
300.622
300.648
300.675
300.703
300.732
300.761
300.791
300.822
300.854
300.887
300.921
300.955
300.991
301.027
301.064
301.103
301.142
301.182
301.224
301.266
301.31
301.355
301.401
301.448
301.497
301.547
301.598
301.651
301.705
301.76
301.817
301.875
301.934
301.995
302.056
302.118
302.181
302.245
302.308
302.37
302.431
300.004
300.011
300.019
300.027
300.036
300.044
300.053
300.063
300.073
300.083
300.093
300.104
300.116
300.127
300.139
300.152
300.165
300.178
300.192
300.206
300.22
300.235
300.251
300.267
300.283
300.3
300.318
300.336
300.354
300.373
300.393
300.413
300.433
300.455
300.476
300.499
300.522
300.546
300.57
300.595
300.621
300.647
300.674
300.702
300.731
300.76
300.79
300.821
300.852
300.885
300.918
300.953
300.988
301.024
301.061
301.099
301.138
301.178
301.218
301.26
301.304
301.348
301.393
301.439
301.487
301.536
301.586
301.637
301.689
301.742
301.797
301.852
301.909
301.966
302.024
302.082
302.141
302.199
302.257
302.315
302.371
300.004
300.011
300.019
300.027
300.036
300.044
300.053
300.063
300.073
300.083
300.093
300.104
300.116
300.127
300.139
300.152
300.165
300.178
300.192
300.206
300.22
300.235
300.251
300.267
300.283
300.3
300.317
300.335
300.354
300.373
300.392
300.412
300.433
300.454
300.476
300.498
300.521
300.545
300.569
300.594
300.62
300.646
300.673
300.701
300.729
300.758
300.788
300.819
300.85
300.882
300.916
300.949
300.984
301.02
301.056
301.094
301.132
301.172
301.212
301.253
301.296
301.339
301.383
301.429
301.475
301.522
301.571
301.62
301.67
301.721
301.774
301.826
301.88
301.934
301.988
302.043
302.097
302.152
302.205
302.258
302.31
300.004
300.011
300.019
300.027
300.036
300.044
300.053
300.063
300.073
300.083
300.093
300.104
300.116
300.127
300.139
300.152
300.164
300.178
300.191
300.206
300.22
300.235
300.251
300.266
300.283
300.3
300.317
300.335
300.353
300.372
300.392
300.412
300.432
300.454
300.475
300.498
300.521
300.544
300.568
300.593
300.618
300.645
300.671
300.699
300.727
300.756
300.786
300.816
300.847
300.879
300.912
300.946
300.98
301.015
301.051
301.088
301.126
301.165
301.204
301.245
301.286
301.329
301.372
301.416
301.461
301.507
301.553
301.601
301.649
301.698
301.748
301.798
301.848
301.899
301.95
302.001
302.052
302.102
302.152
302.201
302.249
300.004
300.011
300.019
300.027
300.036
300.044
300.053
300.063
300.073
300.083
300.093
300.104
300.115
300.127
300.139
300.152
300.164
300.178
300.191
300.205
300.22
300.235
300.25
300.266
300.283
300.299
300.317
300.335
300.353
300.372
300.391
300.411
300.432
300.453
300.475
300.497
300.52
300.543
300.567
300.592
300.617
300.643
300.67
300.697
300.725
300.754
300.783
300.813
300.844
300.876
300.908
300.941
300.975
301.01
301.045
301.082
301.119
301.157
301.195
301.235
301.275
301.316
301.358
301.401
301.445
301.489
301.534
301.579
301.625
301.672
301.719
301.766
301.814
301.862
301.91
301.957
302.004
302.051
302.098
302.143
302.188
300.004
300.011
300.019
300.027
300.036
300.044
300.053
300.063
300.073
300.083
300.093
300.104
300.115
300.127
300.139
300.151
300.164
300.178
300.191
300.205
300.22
300.235
300.25
300.266
300.282
300.299
300.316
300.334
300.353
300.371
300.391
300.411
300.431
300.452
300.474
300.496
300.518
300.542
300.566
300.59
300.615
300.641
300.667
300.694
300.722
300.751
300.78
300.809
300.84
300.871
300.903
300.936
300.969
301.003
301.038
301.074
301.11
301.147
301.185
301.223
301.263
301.303
301.343
301.384
301.426
301.469
301.512
301.555
301.599
301.643
301.688
301.733
301.778
301.822
301.867
301.911
301.955
301.999
302.042
302.084
302.126
300.004
300.011
300.019
300.027
300.036
300.044
300.053
300.063
300.073
300.083
300.093
300.104
300.115
300.127
300.139
300.151
300.164
300.177
300.191
300.205
300.22
300.234
300.25
300.266
300.282
300.299
300.316
300.334
300.352
300.371
300.39
300.41
300.43
300.451
300.472
300.494
300.517
300.54
300.564
300.588
300.613
300.639
300.665
300.692
300.719
300.747
300.776
300.805
300.835
300.866
300.897
300.93
300.962
300.996
301.03
301.065
301.1
301.136
301.173
301.21
301.248
301.287
301.326
301.366
301.406
301.447
301.488
301.529
301.571
301.613
301.655
301.697
301.739
301.781
301.823
301.864
301.905
301.946
301.986
302.025
302.064
300.004
300.011
300.019
300.027
300.036
300.044
300.053
300.063
300.073
300.083
300.093
300.104
300.115
300.127
300.139
300.151
300.164
300.177
300.191
300.205
300.219
300.234
300.249
300.265
300.282
300.298
300.315
300.333
300.351
300.37
300.389
300.409
300.429
300.45
300.471
300.493
300.515
300.538
300.562
300.586
300.611
300.636
300.662
300.688
300.715
300.743
300.771
300.8
300.83
300.86
300.891
300.922
300.954
300.987
301.02
301.054
301.089
301.124
301.159
301.196
301.232
301.269
301.307
301.345
301.383
301.422
301.461
301.501
301.54
301.58
301.619
301.659
301.698
301.738
301.777
301.815
301.854
301.892
301.929
301.966
302.002
300.004
300.011
300.019
300.027
300.035
300.044
300.053
300.063
300.072
300.083
300.093
300.104
300.115
300.127
300.139
300.151
300.164
300.177
300.191
300.205
300.219
300.234
300.249
300.265
300.281
300.298
300.315
300.332
300.35
300.369
300.388
300.408
300.428
300.448
300.469
300.491
300.513
300.536
300.559
300.583
300.608
300.633
300.658
300.684
300.711
300.738
300.766
300.795
300.824
300.853
300.883
300.914
300.945
300.977
301.01
301.042
301.076
301.11
301.144
301.179
301.214
301.25
301.286
301.322
301.359
301.396
301.433
301.47
301.507
301.545
301.582
301.619
301.656
301.693
301.73
301.766
301.801
301.837
301.872
301.906
301.94
300.004
300.011
300.019
300.027
300.035
300.044
300.053
300.063
300.072
300.083
300.093
300.104
300.115
300.127
300.138
300.151
300.164
300.177
300.19
300.204
300.219
300.233
300.249
300.264
300.28
300.297
300.314
300.332
300.349
300.368
300.387
300.406
300.426
300.447
300.468
300.489
300.511
300.534
300.557
300.58
300.604
300.629
300.654
300.68
300.706
300.733
300.76
300.788
300.816
300.845
300.875
300.905
300.935
300.966
300.997
301.029
301.062
301.094
301.127
301.161
301.195
301.229
301.263
301.298
301.333
301.368
301.403
301.438
301.473
301.508
301.543
301.578
301.613
301.647
301.681
301.715
301.748
301.781
301.814
301.846
301.877
300.004
300.011
300.019
300.027
300.035
300.044
300.053
300.063
300.072
300.082
300.093
300.104
300.115
300.126
300.138
300.151
300.163
300.176
300.19
300.204
300.218
300.233
300.248
300.264
300.28
300.296
300.313
300.331
300.348
300.367
300.385
300.405
300.425
300.445
300.465
300.487
300.508
300.531
300.553
300.577
300.6
300.625
300.649
300.675
300.7
300.727
300.753
300.781
300.808
300.836
300.865
300.894
300.924
300.954
300.984
301.015
301.046
301.077
301.109
301.141
301.174
301.206
301.239
301.272
301.305
301.338
301.371
301.404
301.437
301.47
301.503
301.536
301.568
301.6
301.632
301.664
301.695
301.726
301.756
301.786
301.815
300.004
300.011
300.019
300.027
300.035
300.044
300.053
300.062
300.072
300.082
300.093
300.103
300.115
300.126
300.138
300.15
300.163
300.176
300.189
300.203
300.218
300.232
300.247
300.263
300.279
300.295
300.312
300.329
300.347
300.365
300.384
300.403
300.423
300.443
300.463
300.484
300.505
300.527
300.55
300.573
300.596
300.62
300.644
300.669
300.694
300.72
300.746
300.772
300.799
300.827
300.854
300.883
300.911
300.94
300.969
300.999
301.029
301.059
301.089
301.12
301.151
301.182
301.213
301.244
301.275
301.307
301.338
301.369
301.4
301.431
301.462
301.492
301.523
301.553
301.583
301.612
301.641
301.67
301.698
301.726
301.753
300.004
300.011
300.019
300.027
300.035
300.044
300.053
300.062
300.072
300.082
300.093
300.103
300.114
300.126
300.138
300.15
300.163
300.176
300.189
300.203
300.217
300.232
300.247
300.262
300.278
300.294
300.311
300.328
300.346
300.364
300.382
300.401
300.42
300.44
300.46
300.481
300.502
300.524
300.546
300.568
300.591
300.614
300.638
300.662
300.687
300.712
300.737
300.763
300.789
300.816
300.843
300.87
300.897
300.925
300.953
300.982
301.01
301.039
301.068
301.097
301.127
301.156
301.186
301.215
301.245
301.274
301.303
301.333
301.362
301.391
301.42
301.448
301.477
301.505
301.533
301.56
301.587
301.614
301.641
301.667
301.692
300.004
300.011
300.019
300.027
300.035
300.044
300.053
300.062
300.072
300.082
300.092
300.103
300.114
300.126
300.137
300.15
300.162
300.175
300.188
300.202
300.216
300.231
300.246
300.261
300.277
300.293
300.309
300.326
300.344
300.362
300.38
300.399
300.418
300.437
300.457
300.477
300.498
300.519
300.541
300.563
300.585
300.608
300.631
300.655
300.679
300.703
300.728
300.753
300.778
300.804
300.83
300.856
300.883
300.909
300.936
300.963
300.991
301.018
301.046
301.074
301.101
301.129
301.157
301.185
301.213
301.24
301.268
301.296
301.323
301.35
301.377
301.404
301.431
301.457
301.483
301.508
301.534
301.559
301.583
301.608
301.632
300.004
300.011
300.019
300.027
300.035
300.044
300.053
300.062
300.072
300.082
300.092
300.103
300.114
300.125
300.137
300.149
300.162
300.175
300.188
300.201
300.216
300.23
300.245
300.26
300.276
300.292
300.308
300.325
300.342
300.36
300.378
300.396
300.415
300.434
300.454
300.474
300.494
300.515
300.536
300.557
300.579
300.601
300.624
300.647
300.67
300.694
300.718
300.742
300.766
300.791
300.816
300.841
300.867
300.892
300.918
300.944
300.97
300.996
301.022
301.049
301.075
301.101
301.128
301.154
301.18
301.206
301.232
301.258
301.284
301.309
301.334
301.359
301.384
301.409
301.433
301.457
301.481
301.504
301.527
301.55
301.572
300.004
300.011
300.019
300.027
300.035
300.044
300.053
300.062
300.072
300.082
300.092
300.103
300.114
300.125
300.137
300.149
300.161
300.174
300.187
300.201
300.215
300.229
300.244
300.259
300.274
300.29
300.306
300.323
300.34
300.357
300.375
300.393
300.412
300.43
300.45
300.469
300.489
300.51
300.53
300.551
300.572
300.594
300.616
300.638
300.661
300.684
300.707
300.73
300.754
300.778
300.801
300.826
300.85
300.874
300.899
300.924
300.948
300.973
300.998
301.023
301.048
301.073
301.098
301.122
301.147
301.171
301.196
301.22
301.244
301.268
301.292
301.315
301.338
301.361
301.384
301.406
301.428
301.45
301.471
301.493
301.514
300.004
300.011
300.019
300.027
300.035
300.044
300.053
300.062
300.071
300.081
300.092
300.102
300.113
300.124
300.136
300.148
300.161
300.173
300.186
300.2
300.214
300.228
300.242
300.257
300.273
300.288
300.304
300.321
300.337
300.354
300.372
300.39
300.408
300.426
300.445
300.465
300.484
300.504
300.524
300.544
300.565
300.586
300.608
300.629
300.651
300.673
300.695
300.718
300.74
300.763
300.786
300.809
300.832
300.856
300.879
300.903
300.926
300.95
300.973
300.997
301.02
301.044
301.067
301.09
301.114
301.137
301.159
301.182
301.205
301.227
301.249
301.271
301.293
301.314
301.335
301.356
301.377
301.397
301.417
301.437
301.457
300.004
300.011
300.019
300.027
300.035
300.043
300.052
300.062
300.071
300.081
300.091
300.102
300.113
300.124
300.136
300.148
300.16
300.172
300.185
300.199
300.212
300.227
300.241
300.256
300.271
300.286
300.302
300.318
300.335
300.352
300.369
300.386
300.404
300.422
300.441
300.459
300.478
300.498
300.517
300.537
300.557
300.578
300.598
300.619
300.64
300.662
300.683
300.705
300.726
300.748
300.77
300.792
300.814
300.837
300.859
300.881
300.904
300.926
300.948
300.97
300.992
301.015
301.037
301.058
301.08
301.102
301.123
301.145
301.166
301.187
301.207
301.228
301.248
301.268
301.288
301.307
301.327
301.346
301.365
301.383
301.401
300.004
300.011
300.019
300.027
300.035
300.043
300.052
300.061
300.071
300.081
300.091
300.101
300.112
300.123
300.135
300.147
300.159
300.172
300.184
300.198
300.211
300.225
300.239
300.254
300.269
300.284
300.3
300.316
300.332
300.348
300.365
300.382
300.4
300.418
300.436
300.454
300.473
300.491
300.51
300.53
300.549
300.569
300.589
300.609
300.629
300.65
300.67
300.691
300.712
300.733
300.754
300.775
300.796
300.817
300.838
300.859
300.881
300.902
300.923
300.944
300.965
300.985
301.006
301.027
301.047
301.068
301.088
301.108
301.128
301.147
301.167
301.186
301.205
301.223
301.242
301.26
301.278
301.296
301.314
301.331
301.348
300.004
300.011
300.019
300.026
300.035
300.043
300.052
300.061
300.071
300.08
300.091
300.101
300.112
300.123
300.134
300.146
300.158
300.171
300.183
300.197
300.21
300.224
300.238
300.252
300.267
300.282
300.297
300.313
300.329
300.345
300.362
300.378
300.395
300.413
300.43
300.448
300.466
300.485
300.503
300.522
300.541
300.56
300.579
300.598
300.618
300.638
300.657
300.677
300.697
300.717
300.737
300.757
300.777
300.798
300.818
300.838
300.858
300.878
300.898
300.918
300.937
300.957
300.976
300.996
301.015
301.034
301.053
301.072
301.09
301.109
301.127
301.145
301.163
301.181
301.198
301.215
301.232
301.249
301.265
301.281
301.297
300.004
300.011
300.018
300.026
300.034
300.043
300.052
300.061
300.07
300.08
300.09
300.101
300.111
300.122
300.134
300.145
300.157
300.17
300.182
300.195
300.209
300.222
300.236
300.25
300.265
300.28
300.295
300.31
300.326
300.342
300.358
300.374
300.391
300.408
300.425
300.442
300.46
300.478
300.496
300.514
300.532
300.55
300.569
300.588
300.606
300.625
300.644
300.663
300.682
300.702
300.721
300.74
300.759
300.778
300.797
300.816
300.835
300.854
300.873
300.892
300.911
300.929
300.948
300.966
300.984
301.002
301.02
301.037
301.055
301.072
301.089
301.106
301.123
301.14
301.156
301.172
301.188
301.204
301.219
301.234
301.249
300.004
300.011
300.018
300.026
300.034
300.043
300.052
300.061
300.07
300.08
300.09
300.1
300.111
300.122
300.133
300.144
300.156
300.169
300.181
300.194
300.207
300.22
300.234
300.248
300.262
300.277
300.292
300.307
300.322
300.338
300.354
300.37
300.386
300.403
300.419
300.436
300.453
300.471
300.488
300.506
300.523
300.541
300.559
300.577
300.595
300.613
300.631
300.65
300.668
300.686
300.704
300.723
300.741
300.759
300.777
300.796
300.814
300.832
300.849
300.867
300.885
300.902
300.92
300.937
300.954
300.971
300.988
301.005
301.021
301.038
301.054
301.07
301.085
301.101
301.116
301.132
301.146
301.161
301.176
301.19
301.204
300.004
300.011
300.018
300.026
300.034
300.043
300.051
300.06
300.07
300.079
300.089
300.099
300.11
300.121
300.132
300.144
300.155
300.167
300.18
300.192
300.205
300.219
300.232
300.246
300.26
300.274
300.289
300.304
300.319
300.334
300.35
300.365
300.381
300.397
300.414
300.43
300.447
300.464
300.48
300.497
300.515
300.532
300.549
300.566
300.584
300.601
300.619
300.636
300.654
300.671
300.689
300.706
300.724
300.741
300.758
300.776
300.793
300.81
300.827
300.844
300.861
300.877
300.894
300.91
300.926
300.942
300.958
300.974
300.99
301.005
301.02
301.036
301.05
301.065
301.08
301.094
301.108
301.122
301.136
301.149
301.163
300.004
300.011
300.018
300.026
300.034
300.042
300.051
300.06
300.069
300.079
300.089
300.099
300.109
300.12
300.131
300.143
300.154
300.166
300.179
300.191
300.204
300.217
300.23
300.244
300.258
300.272
300.286
300.301
300.316
300.331
300.346
300.361
300.377
300.392
300.408
300.424
300.44
300.457
300.473
300.49
300.506
300.523
300.539
300.556
300.573
300.59
300.607
300.624
300.64
300.657
300.674
300.691
300.707
300.724
300.741
300.757
300.773
300.79
300.806
300.822
300.838
300.854
300.87
300.885
300.901
300.916
300.931
300.946
300.961
300.975
300.99
301.004
301.018
301.032
301.046
301.06
301.073
301.086
301.099
301.112
301.125
300.004
300.011
300.018
300.026
300.034
300.042
300.051
300.06
300.069
300.078
300.088
300.098
300.109
300.119
300.13
300.142
300.153
300.165
300.177
300.19
300.202
300.215
300.228
300.242
300.255
300.269
300.283
300.298
300.312
300.327
300.342
300.357
300.372
300.387
300.403
300.419
300.434
300.45
300.466
300.482
300.498
300.514
300.53
300.547
300.563
300.579
300.595
300.612
300.628
300.644
300.66
300.676
300.692
300.708
300.724
300.74
300.756
300.771
300.787
300.802
300.818
300.833
300.848
300.863
300.877
300.892
300.906
300.921
300.935
300.949
300.963
300.976
300.99
301.003
301.016
301.029
301.042
301.054
301.067
301.079
301.091
300.003
300.011
300.018
300.026
300.034
300.042
300.05
300.059
300.069
300.078
300.088
300.098
300.108
300.119
300.13
300.141
300.152
300.164
300.176
300.188
300.201
300.214
300.227
300.24
300.253
300.267
300.281
300.295
300.309
300.324
300.338
300.353
300.368
300.383
300.398
300.413
300.429
300.444
300.46
300.475
300.491
300.507
300.522
300.538
300.554
300.57
300.585
300.601
300.617
300.632
300.648
300.663
300.679
300.694
300.71
300.725
300.74
300.755
300.77
300.785
300.799
300.814
300.828
300.843
300.857
300.871
300.885
300.898
300.912
300.925
300.939
300.952
300.965
300.977
300.99
301.002
301.015
301.027
301.039
301.05
301.062
300.003
300.011
300.018
300.026
300.033
300.042
300.05
300.059
300.068
300.078
300.087
300.097
300.107
300.118
300.129
300.14
300.151
300.163
300.175
300.187
300.199
300.212
300.225
300.238
300.251
300.265
300.278
300.292
300.306
300.321
300.335
300.349
300.364
300.379
300.394
300.409
300.424
300.439
300.454
300.469
300.484
300.5
300.515
300.53
300.546
300.561
300.576
300.592
300.607
300.622
300.637
300.652
300.667
300.682
300.697
300.712
300.727
300.741
300.755
300.77
300.784
300.798
300.812
300.826
300.839
300.853
300.866
300.88
300.893
300.906
300.918
300.931
300.943
300.956
300.968
300.98
300.992
301.003
301.015
301.026
301.037
300.003
300.01
300.018
300.025
300.033
300.042
300.05
300.059
300.068
300.077
300.087
300.097
300.107
300.117
300.128
300.139
300.15
300.162
300.174
300.186
300.198
300.211
300.223
300.236
300.249
300.263
300.276
300.29
300.304
300.318
300.332
300.346
300.361
300.375
300.39
300.405
300.419
300.434
300.449
300.464
300.479
300.494
300.509
300.524
300.539
300.554
300.569
300.584
300.599
300.614
300.628
300.643
300.658
300.672
300.687
300.701
300.715
300.73
300.744
300.758
300.771
300.785
300.799
300.812
300.825
300.838
300.851
300.864
300.877
300.89
300.902
300.914
300.926
300.938
300.95
300.962
300.973
300.985
300.996
301.007
301.018
300.003
300.01
300.018
300.025
300.033
300.041
300.05
300.058
300.068
300.077
300.086
300.096
300.106
300.117
300.128
300.139
300.15
300.161
300.173
300.185
300.197
300.21
300.222
300.235
300.248
300.261
300.275
300.288
300.302
300.316
300.33
300.344
300.358
300.373
300.387
300.402
300.416
300.431
300.445
300.46
300.475
300.49
300.504
300.519
300.534
300.549
300.563
300.578
300.593
300.607
300.622
300.636
300.65
300.665
300.679
300.693
300.707
300.721
300.735
300.748
300.762
300.775
300.788
300.802
300.815
300.827
300.84
300.853
300.865
300.878
300.89
300.902
300.914
300.925
300.937
300.948
300.959
300.97
300.981
300.992
301.003
300.003
300.01
300.018
300.025
300.033
300.041
300.05
300.058
300.067
300.077
300.086
300.096
300.106
300.116
300.127
300.138
300.149
300.161
300.172
300.184
300.196
300.209
300.221
300.234
300.247
300.26
300.273
300.287
300.301
300.314
300.328
300.342
300.356
300.371
300.385
300.399
300.414
300.428
300.443
300.457
300.472
300.487
300.501
300.516
300.53
300.545
300.559
300.574
300.588
300.603
300.617
300.631
300.645
300.659
300.673
300.687
300.701
300.715
300.728
300.742
300.755
300.768
300.781
300.794
300.807
300.82
300.833
300.845
300.857
300.869
300.881
300.893
300.905
300.916
300.928
300.939
300.95
300.961
300.972
300.982
300.993
300.003
300.01
300.018
300.025
300.033
300.041
300.049
300.058
300.067
300.076
300.086
300.096
300.106
300.116
300.127
300.138
300.149
300.16
300.172
300.184
300.196
300.208
300.221
300.233
300.246
300.259
300.273
300.286
300.3
300.313
300.327
300.341
300.355
300.369
300.384
300.398
300.412
300.427
300.441
300.456
300.47
300.485
300.499
300.514
300.528
300.543
300.557
300.571
300.586
300.6
300.614
300.628
300.642
300.656
300.67
300.684
300.698
300.711
300.725
300.738
300.751
300.765
300.778
300.79
300.803
300.816
300.828
300.84
300.853
300.865
300.877
300.888
300.9
300.911
300.923
300.934
300.945
300.956
300.966
300.977
300.987
300.003
300.01
300.018
300.025
300.033
300.041
300.049
300.058
300.067
300.076
300.086
300.096
300.106
300.116
300.127
300.137
300.149
300.16
300.172
300.183
300.196
300.208
300.22
300.233
300.246
300.259
300.272
300.286
300.299
300.313
300.327
300.341
300.355
300.369
300.383
300.397
300.412
300.426
300.441
300.455
300.469
300.484
300.498
300.513
300.527
300.542
300.556
300.571
300.585
300.599
300.613
300.627
300.641
300.655
300.669
300.683
300.697
300.71
300.724
300.737
300.75
300.763
300.776
300.789
300.802
300.814
300.827
300.839
300.851
300.863
300.875
300.887
300.898
300.91
300.921
300.932
300.943
300.954
300.965
300.975
300.985
300.003
300.01
300.018
300.025
300.033
300.041
300.049
300.058
300.067
300.076
300.086
300.095
300.106
300.116
300.126
300.137
300.148
300.16
300.172
300.183
300.195
300.208
300.22
300.233
300.246
300.259
300.272
300.286
300.299
300.313
300.327
300.341
300.355
300.369
300.383
300.397
300.412
300.426
300.441
300.455
300.47
300.484
300.499
300.513
300.528
300.542
300.556
300.571
300.585
300.599
300.614
300.628
300.642
300.656
300.67
300.683
300.697
300.711
300.724
300.737
300.751
300.764
300.777
300.79
300.802
300.815
300.827
300.84
300.852
300.864
300.876
300.887
300.899
300.91
300.922
300.933
300.944
300.955
300.965
300.976
300.986
300.003
300.01
300.018
300.025
300.033
300.041
300.049
300.058
300.067
300.076
300.086
300.095
300.105
300.116
300.126
300.137
300.148
300.16
300.172
300.183
300.196
300.208
300.22
300.233
300.246
300.259
300.272
300.286
300.299
300.313
300.327
300.341
300.355
300.369
300.383
300.398
300.412
300.427
300.441
300.456
300.47
300.485
300.499
300.514
300.528
300.543
300.557
300.571
300.586
300.6
300.614
300.628
300.643
300.657
300.67
300.684
300.698
300.712
300.725
300.738
300.752
300.765
300.778
300.791
300.803
300.816
300.828
300.841
300.853
300.865
300.877
300.889
300.9
300.912
300.923
300.934
300.945
300.956
300.967
300.977
300.988
303.018
303.147
303.224
303.296
303.359
303.411
303.446
303.486
303.525
303.562
303.594
303.628
303.663
303.697
303.73
303.763
303.794
303.822
303.851
303.881
303.91
303.939
303.969
303.998
304.027
304.055
304.083
304.111
304.139
304.166
304.193
304.219
304.245
304.272
304.298
304.323
304.349
304.374
304.399
304.424
304.449
304.472
304.498
304.525
304.551
304.576
304.6
304.625
304.651
304.676
304.7
304.723
304.747
304.772
304.797
304.823
304.849
304.875
304.9
304.924
304.945
304.968
304.991
305.016
305.04
305.065
305.09
305.114
305.139
305.163
305.187
305.211
305.234
305.258
305.281
305.305
305.328
305.352
305.374
305.399
305.427
305.453
305.477
305.5
305.521
305.543
305.567
305.594
305.619
305.642
305.662
305.686
305.714
305.736
305.762
305.79
305.815
305.837
305.864
305.889
305.91
305.936
305.958
305.983
306.009
306.038
306.064
306.084
306.109
306.13
306.155
306.182
306.21
306.239
306.265
306.285
306.311
306.338
306.366
306.391
306.41
306.434
306.46
306.486
306.512
306.53
306.553
306.577
306.601
306.625
306.649
306.671
306.693
306.714
306.734
306.752
306.77
306.786
306.802
306.815
306.827
306.838
306.847
306.854
306.858
306.861
306.861
306.858
306.852
306.842
306.828
306.81
306.789
306.764
306.733
306.695
306.653
306.579
306.508
306.418
306.299
302.917
303.03
303.118
303.193
303.258
303.314
303.36
303.403
303.445
303.484
303.521
303.557
303.593
303.628
303.662
303.696
303.728
303.758
303.788
303.819
303.849
303.879
303.909
303.938
303.968
303.997
304.025
304.053
304.081
304.109
304.136
304.163
304.19
304.217
304.243
304.269
304.295
304.321
304.346
304.371
304.396
304.421
304.447
304.473
304.5
304.525
304.549
304.575
304.6
304.626
304.65
304.674
304.699
304.724
304.749
304.775
304.8
304.826
304.851
304.875
304.898
304.921
304.945
304.97
304.994
305.019
305.044
305.068
305.093
305.117
305.142
305.166
305.189
305.213
305.237
305.261
305.285
305.308
305.332
305.357
305.384
305.409
305.433
305.457
305.479
305.502
305.526
305.553
305.577
305.6
305.623
305.647
305.673
305.697
305.723
305.749
305.775
305.799
305.825
305.849
305.872
305.897
305.921
305.946
305.972
306
306.026
306.048
306.073
306.095
306.12
306.147
306.175
306.203
306.229
306.251
306.277
306.304
306.331
306.356
306.378
306.402
306.428
306.454
306.479
306.499
306.522
306.546
306.571
306.595
306.618
306.641
306.663
306.684
306.704
306.724
306.742
306.758
306.774
306.788
306.8
306.811
306.82
306.827
306.832
306.834
306.835
306.832
306.826
306.816
306.802
306.784
306.763
306.737
306.705
306.666
306.621
306.549
306.474
306.38
306.248
302.835
302.934
303.019
303.095
303.161
303.219
303.271
303.318
303.362
303.404
303.443
303.481
303.519
303.555
303.59
303.625
303.658
303.69
303.722
303.753
303.784
303.815
303.845
303.875
303.905
303.934
303.963
303.992
304.021
304.049
304.077
304.104
304.131
304.158
304.185
304.211
304.238
304.264
304.29
304.315