/*--------------------------------*- C++ -*----------------------------------*\
| =========                 |                                                 |
| \\      /  F ield         | OpenFOAM: The Open Source CFD Toolbox           |
|  \\    /   O peration     | Version:  2106                                  |
|   \\  /    A nd           | Website:  www.openfoam.com                      |
|    \\/     M anipulation  |                                                 |
\*---------------------------------------------------------------------------*/
FoamFile
{
    version     2.0;
    format      ascii;
    arch        "LSB;label=32;scalar=64";
    class       volVectorField;
    location    "10";
    object      U;
}
// * * * * * * * * * * * * * * * * * * * * * * * * * * * * * * * * * * * * * //

dimensions      [0 1 -1 0 0 0 0];

internalField   nonuniform List<vector> 
12013
(
(0.10004 -1.12946e-05 0)
(0.100206 -2.09347e-05 0)
(0.100476 -2.9909e-05 0)
(0.100824 -3.82117e-05 0)
(0.101246 -4.60332e-05 0)
(0.101733 -5.34804e-05 0)
(0.102281 -6.06202e-05 0)
(0.102883 -6.75072e-05 0)
(0.103535 -7.41814e-05 0)
(0.104233 -8.06747e-05 0)
(0.104974 -8.70121e-05 0)
(0.105755 -9.32144e-05 0)
(0.106571 -9.92976e-05 0)
(0.107422 -0.000105275 0)
(0.108304 -0.000111158 0)
(0.109216 -0.000116955 0)
(0.110154 -0.000122672 0)
(0.111117 -0.000128315 0)
(0.112103 -0.000133888 0)
(0.11311 -0.000139394 0)
(0.114137 -0.000144834 0)
(0.115182 -0.000150209 0)
(0.116243 -0.00015552 0)
(0.11732 -0.000160765 0)
(0.118409 -0.000165942 0)
(0.119511 -0.00017105 0)
(0.120624 -0.000176085 0)
(0.121746 -0.000181044 0)
(0.122876 -0.000185922 0)
(0.124013 -0.000190715 0)
(0.125155 -0.000195418 0)
(0.126302 -0.000200022 0)
(0.127453 -0.000204523 0)
(0.128606 -0.000208911 0)
(0.129759 -0.000213179 0)
(0.130913 -0.000217316 0)
(0.132065 -0.000221312 0)
(0.133215 -0.000225155 0)
(0.134361 -0.000228833 0)
(0.135503 -0.00023233 0)
(0.136639 -0.000235632 0)
(0.137768 -0.00023872 0)
(0.138889 -0.000241574 0)
(0.140001 -0.000244173 0)
(0.141102 -0.000246492 0)
(0.142191 -0.000248503 0)
(0.143268 -0.000250174 0)
(0.14433 -0.000251471 0)
(0.145376 -0.000252352 0)
(0.146404 -0.000252771 0)
(0.147414 -0.000252674 0)
(0.148403 -0.000252002 0)
(0.14937 -0.000250683 0)
(0.150312 -0.000248633 0)
(0.151228 -0.000245758 0)
(0.152115 -0.000241941 0)
(0.15297 -0.000237049 0)
(0.153791 -0.000230919 0)
(0.154574 -0.000223357 0)
(0.155315 -0.000214128 0)
(0.15601 -0.000202942 0)
(0.156654 -0.000189444 0)
(0.157242 -0.000173188 0)
(0.157765 -0.000153613 0)
(0.158216 -0.00013 0)
(0.158586 -0.000101422 0)
(0.15886 -6.66542e-05 0)
(0.159025 -2.40659e-05 0)
(0.159061 2.85741e-05 0)
(0.158943 9.44308e-05 0)
(0.158638 0.000178047 0)
(0.158102 0.000286104 0)
(0.157276 0.000428754 0)
(0.156074 0.000621932 0)
(0.154371 0.00089154 0)
(0.151981 0.0012812 0)
(0.148614 0.00186716 0)
(0.143787 0.00279104 0)
(0.136688 0.00436016 0)
(0.126188 0.00748289 0)
(0.114127 0.0164543 0)
(0.100037 -3.44864e-05 0)
(0.100203 -6.41857e-05 0)
(0.100471 -9.17471e-05 0)
(0.100818 -0.000117228 0)
(0.101239 -0.000141233 0)
(0.101726 -0.000164086 0)
(0.102272 -0.000185994 0)
(0.102873 -0.000207124 0)
(0.103524 -0.0002276 0)
(0.104221 -0.00024752 0)
(0.104961 -0.000266961 0)
(0.10574 -0.000285985 0)
(0.106556 -0.000304643 0)
(0.107406 -0.000322977 0)
(0.108287 -0.000341018 0)
(0.109197 -0.000358794 0)
(0.110133 -0.000376326 0)
(0.111095 -0.000393629 0)
(0.11208 -0.000410717 0)
(0.113086 -0.000427597 0)
(0.114112 -0.000444274 0)
(0.115155 -0.000460752 0)
(0.116215 -0.00047703 0)
(0.117289 -0.000493106 0)
(0.118378 -0.000508974 0)
(0.119478 -0.000524628 0)
(0.120588 -0.000540058 0)
(0.121709 -0.000555253 0)
(0.122837 -0.000570201 0)
(0.123972 -0.000584887 0)
(0.125113 -0.000599292 0)
(0.126258 -0.000613399 0)
(0.127407 -0.000627184 0)
(0.128557 -0.000640625 0)
(0.129709 -0.000653695 0)
(0.13086 -0.000666363 0)
(0.13201 -0.000678599 0)
(0.133158 -0.000690366 0)
(0.134302 -0.000701623 0)
(0.135441 -0.000712329 0)
(0.136575 -0.000722433 0)
(0.137702 -0.000731882 0)
(0.13882 -0.000740615 0)
(0.139929 -0.000748565 0)
(0.141028 -0.000755656 0)
(0.142115 -0.000761803 0)
(0.143189 -0.000766911 0)
(0.144248 -0.000770869 0)
(0.145291 -0.000773555 0)
(0.146318 -0.000774828 0)
(0.147325 -0.000774524 0)
(0.148311 -0.000772458 0)
(0.149276 -0.000768413 0)
(0.150215 -0.000762137 0)
(0.151129 -0.000753336 0)
(0.152013 -0.000741663 0)
(0.152866 -0.000726705 0)
(0.153685 -0.000707973 0)
(0.154466 -0.000684877 0)
(0.155206 -0.000656701 0)
(0.155901 -0.000622572 0)
(0.156545 -0.000581412 0)
(0.157134 -0.00053188 0)
(0.15766 -0.000472285 0)
(0.158115 -0.000400471 0)
(0.15849 -0.000313657 0)
(0.158774 -0.000208199 0)
(0.158953 -7.92492e-05 0)
(0.159007 7.97521e-05 0)
(0.158917 0.000277962 0)
(0.158652 0.0005284 0)
(0.158176 0.00084996 0)
(0.15744 0.0012708 0)
(0.156378 0.00183404 0)
(0.154899 0.00260752 0)
(0.152883 0.00370056 0)
(0.150164 0.00529227 0)
(0.146516 0.0076791 0)
(0.14166 0.0113564 0)
(0.135609 0.0170629 0)
(0.130721 0.0252281 0)
(0.100034 -5.86201e-05 0)
(0.100197 -0.0001101 0)
(0.100463 -0.00015757 0)
(0.100809 -0.000201443 0)
(0.101227 -0.000242766 0)
(0.101712 -0.000282099 0)
(0.102256 -0.000319801 0)
(0.102855 -0.00035616 0)
(0.103504 -0.000391391 0)
(0.104199 -0.000425661 0)
(0.104936 -0.000459106 0)
(0.105713 -0.000491832 0)
(0.106527 -0.000523926 0)
(0.107374 -0.000555459 0)
(0.108252 -0.000586488 0)
(0.10916 -0.000617059 0)
(0.110094 -0.000647207 0)
(0.111053 -0.000676962 0)
(0.112035 -0.000706343 0)
(0.113038 -0.000735365 0)
(0.114061 -0.000764037 0)
(0.115101 -0.000792364 0)
(0.116158 -0.000820345 0)
(0.117229 -0.000847976 0)
(0.118314 -0.000875247 0)
(0.119411 -0.000902148 0)
(0.120518 -0.000928662 0)
(0.121634 -0.000954771 0)
(0.122759 -0.000980452 0)
(0.12389 -0.00100568 0)
(0.125027 -0.00103042 0)
(0.126169 -0.00105465 0)
(0.127313 -0.00107832 0)
(0.12846 -0.00110139 0)
(0.129607 -0.00112383 0)
(0.130754 -0.00114557 0)
(0.1319 -0.00116657 0)
(0.133043 -0.00118676 0)
(0.134182 -0.00120607 0)
(0.135317 -0.00122442 0)
(0.136446 -0.00124175 0)
(0.137568 -0.00125794 0)
(0.138681 -0.0012729 0)
(0.139785 -0.00128651 0)
(0.140879 -0.00129864 0)
(0.14196 -0.00130916 0)
(0.143029 -0.00131788 0)
(0.144083 -0.00132463 0)
(0.145121 -0.0013292 0)
(0.146142 -0.00133134 0)
(0.147143 -0.00133078 0)
(0.148125 -0.0013272 0)
(0.149084 -0.00132024 0)
(0.150018 -0.00130946 0)
(0.150927 -0.00129437 0)
(0.151807 -0.00127438 0)
(0.152655 -0.00124879 0)
(0.15347 -0.00121679 0)
(0.154248 -0.00117737 0)
(0.154985 -0.00112934 0)
(0.155678 -0.00107125 0)
(0.156322 -0.0010013 0)
(0.156912 -0.000917265 0)
(0.157441 -0.000816373 0)
(0.157903 -0.000695095 0)
(0.158289 -0.000548911 0)
(0.158588 -0.000371958 0)
(0.158789 -0.000156519 0)
(0.158877 0.000107688 0)
(0.158834 0.000434694 0)
(0.158638 0.000844023 0)
(0.158262 0.00136322 0)
(0.157673 0.00203185 0)
(0.156833 0.00290773 0)
(0.155698 0.00407649 0)
(0.154221 0.00566583 0)
(0.15237 0.00786449 0)
(0.150151 0.0109424 0)
(0.14768 0.0152562 0)
(0.145395 0.0211248 0)
(0.144597 0.028042 0)
(0.100031 -8.34895e-05 0)
(0.100192 -0.000158553 0)
(0.100454 -0.000227307 0)
(0.100796 -0.000290886 0)
(0.101211 -0.000350745 0)
(0.101692 -0.000407704 0)
(0.102233 -0.000462291 0)
(0.102828 -0.000514925 0)
(0.103474 -0.000565918 0)
(0.104166 -0.000615517 0)
(0.1049 -0.000663915 0)
(0.105673 -0.000711268 0)
(0.106483 -0.000757702 0)
(0.107326 -0.00080332 0)
(0.108201 -0.000848205 0)
(0.109104 -0.000892422 0)
(0.110034 -0.000936025 0)
(0.110989 -0.000979053 0)
(0.111967 -0.00102154 0)
(0.112965 -0.0010635 0)
(0.113983 -0.00110495 0)
(0.115019 -0.0011459 0)
(0.116071 -0.00118634 0)
(0.117137 -0.00122627 0)
(0.118217 -0.00126568 0)
(0.119309 -0.00130454 0)
(0.120411 -0.00134284 0)
(0.121522 -0.00138055 0)
(0.122641 -0.00141764 0)
(0.123766 -0.00145407 0)
(0.124897 -0.00148978 0)
(0.126033 -0.00152475 0)
(0.127171 -0.00155891 0)
(0.128311 -0.0015922 0)
(0.129452 -0.00162456 0)
(0.130593 -0.00165591 0)
(0.131731 -0.00168618 0)
(0.132868 -0.00171527 0)
(0.134 -0.00174309 0)
(0.135128 -0.00176952 0)
(0.136249 -0.00179446 0)
(0.137364 -0.00181775 0)
(0.13847 -0.00183926 0)
(0.139566 -0.00185882 0)
(0.140652 -0.00187624 0)
(0.141726 -0.00189131 0)
(0.142786 -0.0019038 0)
(0.143832 -0.00191344 0)
(0.144862 -0.00191994 0)
(0.145875 -0.00192294 0)
(0.146869 -0.00192205 0)
(0.147843 -0.00191682 0)
(0.148794 -0.00190674 0)
(0.149721 -0.00189118 0)
(0.150622 -0.00186946 0)
(0.151495 -0.00184073 0)
(0.152338 -0.00180403 0)
(0.153147 -0.0017582 0)
(0.15392 -0.00170186 0)
(0.154654 -0.00163334 0)
(0.155345 -0.00155064 0)
(0.155989 -0.00145128 0)
(0.156581 -0.00133224 0)
(0.157116 -0.00118976 0)
(0.157588 -0.00101912 0)
(0.15799 -0.000814313 0)
(0.158313 -0.000567681 0)
(0.158548 -0.000269292 0)
(0.158685 9.38198e-05 0)
(0.15871 0.000538766 0)
(0.15861 0.00108868 0)
(0.15837 0.00177495 0)
(0.157976 0.00264051 0)
(0.157415 0.0037443 0)
(0.156683 0.00516709 0)
(0.155793 0.0070178 0)
(0.154796 0.00943721 0)
(0.153806 0.0125897 0)
(0.153049 0.0166192 0)
(0.152921 0.0214963 0)
(0.153994 0.0265736 0)
(0.100028 -0.000109105 0)
(0.100185 -0.000209457 0)
(0.100443 -0.000300917 0)
(0.10078 -0.000385587 0)
(0.101191 -0.000465275 0)
(0.101667 -0.000541074 0)
(0.102204 -0.000613701 0)
(0.102795 -0.000683714 0)
(0.103436 -0.000751535 0)
(0.104122 -0.000817489 0)
(0.104852 -0.000881837 0)
(0.10562 -0.000944787 0)
(0.106425 -0.00100651 0)
(0.107263 -0.00106714 0)
(0.108132 -0.00112678 0)
(0.10903 -0.00118553 0)
(0.109954 -0.00124346 0)
(0.110903 -0.00130061 0)
(0.111875 -0.00135704 0)
(0.112868 -0.00141276 0)
(0.11388 -0.0014678 0)
(0.114909 -0.00152216 0)
(0.115954 -0.00157584 0)
(0.117014 -0.00162883 0)
(0.118087 -0.00168112 0)
(0.119171 -0.00173268 0)
(0.120266 -0.00178348 0)
(0.121369 -0.00183349 0)
(0.122481 -0.00188266 0)
(0.123599 -0.00193094 0)
(0.124722 -0.00197828 0)
(0.125849 -0.0020246 0)
(0.126979 -0.00206985 0)
(0.12811 -0.00211393 0)
(0.129243 -0.00215676 0)
(0.130374 -0.00219825 0)
(0.131504 -0.00223828 0)
(0.132631 -0.00227674 0)
(0.133754 -0.0023135 0)
(0.134872 -0.00234842 0)
(0.135984 -0.00238133 0)
(0.137089 -0.00241206 0)
(0.138184 -0.00244041 0)
(0.139271 -0.00246617 0)
(0.140346 -0.00248909 0)
(0.14141 -0.00250889 0)
(0.14246 -0.00252527 0)
(0.143496 -0.00253788 0)
(0.144515 -0.00254632 0)
(0.145518 -0.00255015 0)
(0.146501 -0.00254885 0)
(0.147465 -0.00254184 0)
(0.148406 -0.00252845 0)
(0.149324 -0.00250789 0)
(0.150216 -0.00247925 0)
(0.15108 -0.00244149 0)
(0.151915 -0.00239334 0)
(0.152718 -0.00233335 0)
(0.153486 -0.00225978 0)
(0.154216 -0.00217053 0)
(0.154905 -0.0020631 0)
(0.15555 -0.00193445 0)
(0.156147 -0.00178088 0)
(0.156691 -0.00159783 0)
(0.157178 -0.00137967 0)
(0.157602 -0.00111935 0)
(0.157958 -0.000808007 0)
(0.158239 -0.000434429 0)
(0.158439 1.56726e-05 0)
(0.158551 0.000560375 0)
(0.158569 0.00122319 0)
(0.158491 0.00203456 0)
(0.158317 0.00303369 0)
(0.158055 0.00427054 0)
(0.157728 0.00580745 0)
(0.157381 0.00771881 0)
(0.157093 0.0100854 0)
(0.156996 0.0129759 0)
(0.157287 0.0164015 0)
(0.15822 0.0202181 0)
(0.160029 0.0239525 0)
(0.100025 -0.000135478 0)
(0.100179 -0.000262732 0)
(0.100431 -0.000378354 0)
(0.100763 -0.000485543 0)
(0.101168 -0.000586415 0)
(0.101639 -0.000682334 0)
(0.102169 -0.000774219 0)
(0.102754 -0.000862775 0)
(0.103389 -0.00094854 0)
(0.10407 -0.00103193 0)
(0.104793 -0.00111327 0)
(0.105555 -0.00119284 0)
(0.106353 -0.00127083 0)
(0.107184 -0.00134743 0)
(0.108047 -0.00142278 0)
(0.108937 -0.00149698 0)
(0.109855 -0.00157013 0)
(0.110796 -0.0016423 0)
(0.11176 -0.00171353 0)
(0.112745 -0.00178386 0)
(0.113749 -0.00185331 0)
(0.11477 -0.0019219 0)
(0.115807 -0.00198961 0)
(0.116858 -0.00205645 0)
(0.117922 -0.00212238 0)
(0.118997 -0.00218738 0)
(0.120083 -0.0022514 0)
(0.121177 -0.00231441 0)
(0.122279 -0.00237635 0)
(0.123387 -0.00243715 0)
(0.1245 -0.00249674 0)
(0.125616 -0.00255504 0)
(0.126736 -0.00261195 0)
(0.127857 -0.00266739 0)
(0.128978 -0.00272123 0)
(0.130098 -0.00277336 0)
(0.131217 -0.00282364 0)
(0.132332 -0.00287192 0)
(0.133444 -0.00291804 0)
(0.13455 -0.00296182 0)
(0.135649 -0.00300306 0)
(0.136742 -0.00304153 0)
(0.137825 -0.003077 0)
(0.138899 -0.00310919 0)
(0.139962 -0.00313779 0)
(0.141013 -0.00316247 0)
(0.14205 -0.00318284 0)
(0.143073 -0.00319848 0)
(0.14408 -0.00320889 0)
(0.14507 -0.00321352 0)
(0.146041 -0.00321175 0)
(0.146992 -0.00320287 0)
(0.147922 -0.00318604 0)
(0.148829 -0.00316033 0)
(0.14971 -0.00312464 0)
(0.150565 -0.00307769 0)
(0.151391 -0.003018 0)
(0.152186 -0.00294384 0)
(0.152949 -0.00285314 0)
(0.153675 -0.00274347 0)
(0.154364 -0.00261194 0)
(0.155012 -0.00245506 0)
(0.155616 -0.00226865 0)
(0.156173 -0.00204763 0)
(0.15668 -0.00178583 0)
(0.157134 -0.00147568 0)
(0.15753 -0.00110791 0)
(0.157867 -0.000671045 0)
(0.158142 -0.000150984 0)
(0.158353 0.000469471 0)
(0.158504 0.0012113 0)
(0.158598 0.00210036 0)
(0.158648 0.00316764 0)
(0.158673 0.00444928 0)
(0.158709 0.00598541 0)
(0.158809 0.00781662 0)
(0.159049 0.00997598 0)
(0.159539 0.012473 0)
(0.160412 0.0152646 0)
(0.161808 0.0182095 0)
(0.16381 0.0210146 0)
(0.100022 -0.000162625 0)
(0.100172 -0.000318313 0)
(0.100418 -0.00045957 0)
(0.100744 -0.000590731 0)
(0.101142 -0.000714192 0)
(0.101606 -0.000831567 0)
(0.10213 -0.000943982 0)
(0.102707 -0.0010523 0)
(0.103335 -0.00115718 0)
(0.104008 -0.00125914 0)
(0.104724 -0.00135857 0)
(0.105478 -0.0014558 0)
(0.106268 -0.0015511 0)
(0.107091 -0.00164468 0)
(0.107945 -0.0017367 0)
(0.108827 -0.00182732 0)
(0.109735 -0.00191662 0)
(0.110668 -0.00200471 0)
(0.111622 -0.00209163 0)
(0.112597 -0.00217744 0)
(0.113591 -0.00226216 0)
(0.114602 -0.0023458 0)
(0.115629 -0.00242836 0)
(0.11667 -0.00250983 0)
(0.117723 -0.00259017 0)
(0.118787 -0.00266935 0)
(0.119861 -0.00274733 0)
(0.120944 -0.00282405 0)
(0.122034 -0.00289944 0)
(0.12313 -0.00297341 0)
(0.124231 -0.00304589 0)
(0.125335 -0.00311677 0)
(0.126442 -0.00318594 0)
(0.12755 -0.00325329 0)
(0.128658 -0.00331866 0)
(0.129765 -0.00338193 0)
(0.130869 -0.00344291 0)
(0.131971 -0.00350144 0)
(0.133068 -0.00355732 0)
(0.13416 -0.00361032 0)
(0.135245 -0.00366021 0)
(0.136323 -0.00370671 0)
(0.137392 -0.00374955 0)
(0.138451 -0.00378838 0)
(0.139499 -0.00382284 0)
(0.140535 -0.00385253 0)
(0.141557 -0.00387699 0)
(0.142565 -0.00389572 0)
(0.143558 -0.00390813 0)
(0.144533 -0.00391358 0)
(0.14549 -0.00391133 0)
(0.146427 -0.00390054 0)
(0.147344 -0.00388026 0)
(0.148238 -0.00384939 0)
(0.149107 -0.00380668 0)
(0.149952 -0.00375066 0)
(0.150769 -0.00367967 0)
(0.151556 -0.00359173 0)
(0.152313 -0.00348456 0)
(0.153038 -0.00335547 0)
(0.153727 -0.00320131 0)
(0.15438 -0.00301833 0)
(0.154995 -0.00280212 0)
(0.155568 -0.00254741 0)
(0.1561 -0.0022479 0)
(0.156588 -0.00189612 0)
(0.157032 -0.0014831 0)
(0.157431 -0.000998178 0)
(0.157788 -0.000428675 0)
(0.158106 0.000240305 0)
(0.15839 0.00102528 0)
(0.158653 0.00194561 0)
(0.158911 0.00302252 0)
(0.159189 0.00427803 0)
(0.159522 0.00573276 0)
(0.159959 0.00740198 0)
(0.160562 0.00928906 0)
(0.161404 0.0113754 0)
(0.162566 0.0136061 0)
(0.164115 0.0158738 0)
(0.166071 0.018008 0)
(0.100018 -0.000190575 0)
(0.100165 -0.000376159 0)
(0.100405 -0.000544529 0)
(0.100724 -0.000701124 0)
(0.101115 -0.00084861 0)
(0.101571 -0.00098882 0)
(0.102086 -0.00112309 0)
(0.102655 -0.00125244 0)
(0.103274 -0.00137765 0)
(0.103939 -0.00149935 0)
(0.104645 -0.001618 0)
(0.105389 -0.00173401 0)
(0.10617 -0.00184768 0)
(0.106983 -0.00195927 0)
(0.107827 -0.00206898 0)
(0.108699 -0.00217699 0)
(0.109596 -0.00228341 0)
(0.110518 -0.00238835 0)
(0.111462 -0.00249188 0)
(0.112425 -0.00259406 0)
(0.113408 -0.00269491 0)
(0.114407 -0.00279446 0)
(0.115421 -0.00289268 0)
(0.116449 -0.00298958 0)
(0.11749 -0.00308511 0)
(0.118541 -0.00317924 0)
(0.119602 -0.0032719 0)
(0.120671 -0.00336303 0)
(0.121747 -0.00345254 0)
(0.122829 -0.00354035 0)
(0.123915 -0.00362634 0)
(0.125005 -0.0037104 0)
(0.126097 -0.0037924 0)
(0.127189 -0.00387219 0)
(0.128282 -0.00394961 0)
(0.129373 -0.00402448 0)
(0.130462 -0.00409662 0)
(0.131548 -0.00416581 0)
(0.132629 -0.00423181 0)
(0.133704 -0.00429438 0)
(0.134773 -0.00435322 0)
(0.135834 -0.00440802 0)
(0.136885 -0.00445845 0)
(0.137927 -0.00450413 0)
(0.138958 -0.00454462 0)
(0.139977 -0.00457946 0)
(0.140983 -0.00460812 0)
(0.141974 -0.00463002 0)
(0.14295 -0.0046445 0)
(0.143909 -0.00465083 0)
(0.14485 -0.00464816 0)
(0.145772 -0.00463555 0)
(0.146674 -0.00461195 0)
(0.147554 -0.00457611 0)
(0.148412 -0.00452667 0)
(0.149245 -0.00446202 0)
(0.150052 -0.00438035 0)
(0.150833 -0.00427954 0)
(0.151585 -0.00415717 0)
(0.152308 -0.00401043 0)
(0.153 -0.00383607 0)
(0.15366 -0.00363028 0)
(0.154287 -0.00338868 0)
(0.154881 -0.00310614 0)
(0.155441 -0.00277671 0)
(0.155968 -0.0023935 0)
(0.156462 -0.00194856 0)
(0.156927 -0.00143278 0)
(0.157367 -0.000835861 0)
(0.157789 -0.000146285 0)
(0.158201 0.000648168 0)
(0.158616 0.00155943 0)
(0.159054 0.00259972 0)
(0.159537 0.00377945 0)
(0.160096 0.00510515 0)
(0.16077 0.00657648 0)
(0.1616 0.00818212 0)
(0.162632 0.00989473 0)
(0.16391 0.0116656 0)
(0.165462 0.0134208 0)
(0.167283 0.0150637 0)
(0.100015 -0.000219371 0)
(0.100159 -0.00043625 0)
(0.100392 -0.000633206 0)
(0.100703 -0.000816695 0)
(0.101086 -0.000989659 0)
(0.101533 -0.00115412 0)
(0.102039 -0.00131159 0)
(0.102599 -0.00146328 0)
(0.103207 -0.00161009 0)
(0.103861 -0.00175274 0)
(0.104557 -0.00189179 0)
(0.105291 -0.0020277 0)
(0.10606 -0.00216085 0)
(0.106862 -0.00229152 0)
(0.107694 -0.00241996 0)
(0.108554 -0.00254637 0)
(0.109439 -0.00267089 0)
(0.110348 -0.00279365 0)
(0.111279 -0.00291472 0)
(0.112229 -0.00303417 0)
(0.113198 -0.00315204 0)
(0.114184 -0.00326834 0)
(0.115184 -0.00338307 0)
(0.116197 -0.0034962 0)
(0.117223 -0.00360771 0)
(0.118259 -0.00371753 0)
(0.119305 -0.0038256 0)
(0.120359 -0.00393184 0)
(0.121419 -0.00403616 0)
(0.122484 -0.00413844 0)
(0.123554 -0.00423856 0)
(0.124627 -0.00433639 0)
(0.125702 -0.00443176 0)
(0.126777 -0.00452452 0)
(0.127852 -0.00461447 0)
(0.128925 -0.00470141 0)
(0.129996 -0.00478512 0)
(0.131064 -0.00486536 0)
(0.132126 -0.00494184 0)
(0.133183 -0.00501429 0)
(0.134232 -0.00508237 0)
(0.135274 -0.00514574 0)
(0.136307 -0.00520399 0)
(0.13733 -0.0052567 0)
(0.138342 -0.00530339 0)
(0.139342 -0.00534353 0)
(0.140329 -0.00537653 0)
(0.141302 -0.00540173 0)
(0.142259 -0.00541842 0)
(0.143201 -0.00542577 0)
(0.144125 -0.00542287 0)
(0.14503 -0.00540869 0)
(0.145917 -0.00538208 0)
(0.146782 -0.00534172 0)
(0.147627 -0.00528615 0)
(0.148448 -0.00521368 0)
(0.149247 -0.00512243 0)
(0.15002 -0.00501023 0)
(0.150769 -0.00487463 0)
(0.151491 -0.00471282 0)
(0.152187 -0.00452162 0)
(0.152856 -0.0042974 0)
(0.153498 -0.00403604 0)
(0.154114 -0.00373289 0)
(0.154704 -0.00338269 0)
(0.155271 -0.00297957 0)
(0.155817 -0.00251704 0)
(0.156346 -0.00198805 0)
(0.156865 -0.00138506 0)
(0.157381 -0.000700233 0)
(0.157906 7.44291e-05 0)
(0.15845 0.000945166 0)
(0.159032 0.0019165 0)
(0.159671 0.00299078 0)
(0.16039 0.00416599 0)
(0.161215 0.00543402 0)
(0.162175 0.00677856 0)
(0.163293 0.00817327 0)
(0.164592 0.00958051 0)
(0.166078 0.0109519 0)
(0.167743 0.0122329 0)
(0.100011 -0.00024906 0)
(0.100152 -0.000498577 0)
(0.100379 -0.000725583 0)
(0.100682 -0.00093742 0)
(0.101056 -0.00113732 0)
(0.101493 -0.00132745 0)
(0.101989 -0.00150952 0)
(0.102538 -0.00168488 0)
(0.103135 -0.00185458 0)
(0.103778 -0.00201943 0)
(0.104461 -0.00218008 0)
(0.105183 -0.00233707 0)
(0.105939 -0.00249082 0)
(0.106728 -0.00264167 0)
(0.107547 -0.00278991 0)
(0.108393 -0.00293575 0)
(0.109264 -0.00307937 0)
(0.110159 -0.00322091 0)
(0.111075 -0.00336047 0)
(0.112011 -0.00349812 0)
(0.112964 -0.00363389 0)
(0.113933 -0.00376781 0)
(0.114918 -0.00389988 0)
(0.115915 -0.00403006 0)
(0.116924 -0.00415831 0)
(0.117943 -0.00428458 0)
(0.118971 -0.00440879 0)
(0.120007 -0.00453084 0)
(0.121049 -0.00465062 0)
(0.122097 -0.004768 0)
(0.123148 -0.00488286 0)
(0.124202 -0.00499501 0)
(0.125257 -0.0051043 0)
(0.126313 -0.00521053 0)
(0.127368 -0.00531348 0)
(0.128422 -0.00541293 0)
(0.129473 -0.00550862 0)
(0.130519 -0.00560027 0)
(0.131561 -0.00568757 0)
(0.132597 -0.00577021 0)
(0.133626 -0.00584781 0)
(0.134647 -0.00591998 0)
(0.135659 -0.00598628 0)
(0.136661 -0.00604623 0)
(0.137653 -0.00609931 0)
(0.138632 -0.00614493 0)
(0.139598 -0.00618245 0)
(0.140551 -0.00621117 0)
(0.141489 -0.00623029 0)
(0.142411 -0.00623894 0)
(0.143317 -0.00623614 0)
(0.144205 -0.00622082 0)
(0.145075 -0.00619176 0)
(0.145926 -0.00614761 0)
(0.146757 -0.00608687 0)
(0.147567 -0.00600783 0)
(0.148356 -0.00590861 0)
(0.149123 -0.00578709 0)
(0.149869 -0.00564089 0)
(0.150592 -0.00546737 0)
(0.151292 -0.00526357 0)
(0.151971 -0.00502622 0)
(0.152629 -0.0047517 0)
(0.153267 -0.00443605 0)
(0.153888 -0.00407497 0)
(0.154494 -0.00366389 0)
(0.155088 -0.00319798 0)
(0.155677 -0.00267236 0)
(0.156266 -0.00208223 0)
(0.156864 -0.00142314 0)
(0.157479 -0.000691257 0)
(0.158125 0.000116517 0)
(0.158815 0.00099977 0)
(0.159563 0.0019551 0)
(0.160385 0.00297642 0)
(0.161298 0.00405306 0)
(0.162319 0.00516893 0)
(0.163459 0.0063023 0)
(0.164727 0.00742608 0)
(0.166123 0.00850935 0)
(0.167636 0.00952079 0)
(0.100008 -0.000279687 0)
(0.100146 -0.000563139 0)
(0.100367 -0.000821648 0)
(0.100661 -0.00106327 0)
(0.101025 -0.00129156 0)
(0.101452 -0.00150879 0)
(0.101936 -0.00171686 0)
(0.102473 -0.00191725 0)
(0.103059 -0.00211114 0)
(0.103688 -0.00229946 0)
(0.104358 -0.00248295 0)
(0.105066 -0.0026622 0)
(0.105809 -0.0028377 0)
(0.106583 -0.00300985 0)
(0.107386 -0.00317896 0)
(0.108217 -0.00334528 0)
(0.109073 -0.00350903 0)
(0.109951 -0.00367034 0)
(0.110851 -0.00382934 0)
(0.111769 -0.0039861 0)
(0.112706 -0.00414068 0)
(0.113658 -0.00429308 0)
(0.114624 -0.00444332 0)
(0.115603 -0.00459135 0)
(0.116593 -0.00473713 0)
(0.117593 -0.00488059 0)
(0.118602 -0.00502164 0)
(0.119618 -0.00516018 0)
(0.12064 -0.00529607 0)
(0.121667 -0.00542918 0)
(0.122698 -0.00555935 0)
(0.12373 -0.00568639 0)
(0.124765 -0.00581011 0)
(0.125799 -0.00593029 0)
(0.126832 -0.00604669 0)
(0.127864 -0.00615906 0)
(0.128892 -0.00626711 0)
(0.129917 -0.00637053 0)
(0.130936 -0.00646898 0)
(0.131949 -0.0065621 0)
(0.132956 -0.00664949 0)
(0.133954 -0.00673072 0)
(0.134943 -0.00680531 0)
(0.135923 -0.00687273 0)
(0.136892 -0.00693242 0)
(0.137849 -0.00698377 0)
(0.138793 -0.00702607 0)
(0.139725 -0.00705858 0)
(0.140642 -0.00708048 0)
(0.141544 -0.00709085 0)
(0.14243 -0.00708869 0)
(0.143301 -0.00707288 0)
(0.144154 -0.00704222 0)
(0.144989 -0.00699534 0)
(0.145806 -0.00693077 0)
(0.146605 -0.00684685 0)
(0.147385 -0.00674178 0)
(0.148146 -0.00661358 0)
(0.148888 -0.00646006 0)
(0.149612 -0.00627884 0)
(0.150318 -0.00606736 0)
(0.151007 -0.00582283 0)
(0.15168 -0.00554229 0)
(0.15234 -0.00522264 0)
(0.152989 -0.00486064 0)
(0.15363 -0.00445308 0)
(0.154268 -0.0039968 0)
(0.154907 -0.0034889 0)
(0.155555 -0.00292695 0)
(0.156217 -0.00230922 0)
(0.156902 -0.00163494 0)
(0.157621 -0.000904577 0)
(0.158383 -0.000119629 0)
(0.159199 0.000715323 0)
(0.16008 0.0015906 0)
(0.161034 0.00249588 0)
(0.162071 0.00341762 0)
(0.163194 0.00433942 0)
(0.164408 0.00524257 0)
(0.165707 0.00610743 0)
(0.167082 0.00691576 0)
(0.100004 -0.000311291 0)
(0.100139 -0.000629938 0)
(0.100354 -0.000921381 0)
(0.100639 -0.00119422 0)
(0.100993 -0.00145233 0)
(0.101409 -0.0016981 0)
(0.101881 -0.00193355 0)
(0.102406 -0.00216033 0)
(0.102978 -0.00237975 0)
(0.103593 -0.00259282 0)
(0.104249 -0.00280038 0)
(0.104941 -0.00300309 0)
(0.105668 -0.00320151 0)
(0.106426 -0.00339608 0)
(0.107213 -0.00358716 0)
(0.108027 -0.00377502 0)
(0.108865 -0.00395991 0)
(0.109726 -0.00414198 0)
(0.110607 -0.00432138 0)
(0.111507 -0.00449818 0)
(0.112424 -0.00467245 0)
(0.113356 -0.0048442 0)
(0.114303 -0.00501344 0)
(0.115261 -0.00518012 0)
(0.116231 -0.00534418 0)
(0.11721 -0.00550557 0)
(0.118197 -0.00566416 0)
(0.119192 -0.00581984 0)
(0.120192 -0.00597248 0)
(0.121196 -0.00612191 0)
(0.122204 -0.00626795 0)
(0.123214 -0.0064104 0)
(0.124225 -0.00654905 0)
(0.125236 -0.00668364 0)
(0.126245 -0.00681393 0)
(0.127253 -0.00693961 0)
(0.128257 -0.00706039 0)
(0.129257 -0.00717592 0)
(0.130252 -0.00728583 0)
(0.131241 -0.00738974 0)
(0.132222 -0.0074872 0)
(0.133196 -0.00757775 0)
(0.134161 -0.00766088 0)
(0.135117 -0.00773605 0)
(0.136061 -0.00780264 0)
(0.136995 -0.00786001 0)
(0.137916 -0.00790745 0)
(0.138825 -0.00794417 0)
(0.13972 -0.00796934 0)
(0.140601 -0.00798203 0)
(0.141468 -0.00798124 0)
(0.142319 -0.00796588 0)
(0.143155 -0.00793474 0)
(0.143974 -0.00788654 0)
(0.144778 -0.00781987 0)
(0.145565 -0.00773319 0)
(0.146336 -0.00762485 0)
(0.147091 -0.0074931 0)
(0.14783 -0.00733603 0)
(0.148554 -0.00715164 0)
(0.149265 -0.00693781 0)
(0.149963 -0.00669236 0)
(0.15065 -0.00641306 0)
(0.151329 -0.0060977 0)
(0.152002 -0.00574412 0)
(0.152673 -0.00535036 0)
(0.153346 -0.00491473 0)
(0.154026 -0.004436 0)
(0.154717 -0.00391351 0)
(0.155427 -0.00334746 0)
(0.15616 -0.00273903 0)
(0.156925 -0.00209062 0)
(0.15773 -0.00140598 0)
(0.15858 -0.000690103 0)
(0.159484 5.15246e-05 0)
(0.160446 0.000809074 0)
(0.161469 0.00156971 0)
(0.162554 0.00232155 0)
(0.163701 0.00305206 0)
(0.164906 0.00374893 0)
(0.166159 0.00440155 0)
(0.0999995 -0.0003439 0)
(0.100133 -0.000698969 0)
(0.100341 -0.00102474 0)
(0.100617 -0.00133021 0)
(0.10096 -0.00161955 0)
(0.101365 -0.00189527 0)
(0.101824 -0.0021595 0)
(0.102335 -0.00241403 0)
(0.102893 -0.00266028 0)
(0.103493 -0.00289939 0)
(0.104133 -0.00313226 0)
(0.104809 -0.00335965 0)
(0.105519 -0.00358215 0)
(0.106259 -0.00380027 0)
(0.107028 -0.0040144 0)
(0.107823 -0.00422486 0)
(0.108642 -0.00443191 0)
(0.109483 -0.00463573 0)
(0.110344 -0.00483648 0)
(0.111224 -0.00503424 0)
(0.11212 -0.00522908 0)
(0.113031 -0.00542103 0)
(0.113955 -0.00561007 0)
(0.114892 -0.00579618 0)
(0.115839 -0.00597928 0)
(0.116795 -0.00615929 0)
(0.117759 -0.0063361 0)
(0.118729 -0.00650958 0)
(0.119705 -0.00667957 0)
(0.120685 -0.00684589 0)
(0.121668 -0.00700834 0)
(0.122653 -0.00716671 0)
(0.123639 -0.00732075 0)
(0.124624 -0.0074702 0)
(0.125608 -0.00761477 0)
(0.126589 -0.00775416 0)
(0.127568 -0.00788802 0)
(0.128541 -0.00801599 0)
(0.12951 -0.00813768 0)
(0.130473 -0.00825266 0)
(0.131428 -0.00836049 0)
(0.132376 -0.00846066 0)
(0.133315 -0.00855264 0)
(0.134245 -0.00863587 0)
(0.135164 -0.00870971 0)
(0.136073 -0.00877351 0)
(0.13697 -0.00882654 0)
(0.137855 -0.00886803 0)
(0.138727 -0.00889714 0)
(0.139586 -0.00891295 0)
(0.140432 -0.00891451 0)
(0.141264 -0.00890076 0)
(0.142082 -0.00887059 0)
(0.142885 -0.00882279 0)
(0.143674 -0.00875609 0)
(0.144449 -0.00866914 0)
(0.145211 -0.00856051 0)
(0.145959 -0.00842871 0)
(0.146694 -0.00827219 0)
(0.147418 -0.00808937 0)
(0.148132 -0.00787866 0)
(0.148837 -0.00763848 0)
(0.149535 -0.00736735 0)
(0.150229 -0.00706388 0)
(0.150921 -0.0067269 0)
(0.151615 -0.0063555 0)
(0.152314 -0.00594916 0)
(0.153022 -0.00550787 0)
(0.153744 -0.00503222 0)
(0.154483 -0.00452354 0)
(0.155246 -0.00398404 0)
(0.156036 -0.00341691 0)
(0.156859 -0.00282634 0)
(0.157718 -0.00221765 0)
(0.158618 -0.00159702 0)
(0.159561 -0.000971268 0)
(0.16055 -0.00034657 0)
(0.161584 0.000268198 0)
(0.16266 0.000863986 0)
(0.163774 0.00143154 0)
(0.164919 0.00196407 0)
(0.0999949 -0.000377527 0)
(0.100126 -0.000770212 0)
(0.100328 -0.00113168 0)
(0.100595 -0.00147115 0)
(0.100927 -0.00179311 0)
(0.101319 -0.00210017 0)
(0.101766 -0.00239455 0)
(0.102262 -0.00267816 0)
(0.102804 -0.00295256 0)
(0.103388 -0.00321897 0)
(0.10401 -0.00347839 0)
(0.104669 -0.00373164 0)
(0.10536 -0.00397939 0)
(0.106082 -0.00422218 0)
(0.106831 -0.00446044 0)
(0.107606 -0.00469454 0)
(0.108404 -0.00492475 0)
(0.109223 -0.00515129 0)
(0.110063 -0.00537432 0)
(0.11092 -0.00559394 0)
(0.111793 -0.00581022 0)
(0.112681 -0.00602319 0)
(0.113581 -0.00623283 0)
(0.114494 -0.00643912 0)
(0.115416 -0.00664198 0)
(0.116347 -0.0068413 0)
(0.117286 -0.00703698 0)
(0.118231 -0.00722886 0)
(0.11918 -0.00741678 0)
(0.120134 -0.00760053 0)
(0.12109 -0.0077799 0)
(0.122048 -0.00795466 0)
(0.123007 -0.00812455 0)
(0.123964 -0.00828927 0)
(0.124921 -0.00844852 0)
(0.125874 -0.00860197 0)
(0.126825 -0.00874926 0)
(0.127771 -0.00889 0)
(0.128711 -0.00902378 0)
(0.129646 -0.00915017 0)
(0.130574 -0.00926867 0)
(0.131494 -0.00937879 0)
(0.132405 -0.00947998 0)
(0.133308 -0.00957165 0)
(0.134201 -0.00965319 0)
(0.135083 -0.00972393 0)
(0.135955 -0.00978316 0)
(0.136815 -0.00983011 0)
(0.137664 -0.00986399 0)
(0.138501 -0.00988394 0)
(0.139325 -0.00988904 0)
(0.140136 -0.00987834 0)
(0.140936 -0.00985084 0)
(0.141722 -0.00980546 0)
(0.142496 -0.00974112 0)
(0.143259 -0.00965667 0)
(0.14401 -0.00955096 0)
(0.14475 -0.0094228 0)
(0.14548 -0.00927104 0)
(0.146202 -0.00909454 0)
(0.146917 -0.00889222 0)
(0.147625 -0.00866309 0)
(0.148331 -0.00840633 0)
(0.149034 -0.00812128 0)
(0.149739 -0.00780755 0)
(0.150447 -0.00746507 0)
(0.151162 -0.00709416 0)
(0.151887 -0.0066956 0)
(0.152625 -0.00627071 0)
(0.15338 -0.00582142 0)
(0.154155 -0.0053503 0)
(0.154952 -0.00486063 0)
(0.155776 -0.00435634 0)
(0.156627 -0.00384203 0)
(0.157508 -0.00332285 0)
(0.158419 -0.00280448 0)
(0.159361 -0.00229273 0)
(0.160333 -0.00179334 0)
(0.161333 -0.00131161 0)
(0.162359 -0.000851425 0)
(0.163404 -0.0004164 0)
(0.09999 -0.00041217 0)
(0.100119 -0.000843626 0)
(0.100315 -0.0012421 0)
(0.100573 -0.00161691 0)
(0.100893 -0.00197284 0)
(0.101272 -0.00231258 0)
(0.101705 -0.00263844 0)
(0.102185 -0.00295246 0)
(0.102711 -0.00325628 0)
(0.103278 -0.00355124 0)
(0.103882 -0.00383842 0)
(0.104521 -0.0041187 0)
(0.105193 -0.00439282 0)
(0.105894 -0.00466137 0)
(0.106622 -0.00492483 0)
(0.107375 -0.00518359 0)
(0.10815 -0.00543795 0)
(0.108947 -0.00568815 0)
(0.109763 -0.00593436 0)
(0.110595 -0.00617671 0)
(0.111444 -0.00641526 0)
(0.112307 -0.00665005 0)
(0.113182 -0.00688105 0)
(0.114068 -0.00710824 0)
(0.114964 -0.00733154 0)
(0.115868 -0.00755083 0)
(0.116779 -0.00776599 0)
(0.117696 -0.00797685 0)
(0.118618 -0.00818323 0)
(0.119543 -0.00838493 0)
(0.120471 -0.0085817 0)
(0.1214 -0.0087733 0)
(0.122329 -0.00895945 0)
(0.123257 -0.00913983 0)