/*--------------------------------*- C++ -*----------------------------------*\
| =========                 |                                                 |
| \\      /  F ield         | OpenFOAM: The Open Source CFD Toolbox           |
|  \\    /   O peration     | Version:  2106                                  |
|   \\  /    A nd           | Website:  www.openfoam.com                      |
|    \\/     M anipulation  |                                                 |
\*---------------------------------------------------------------------------*/
FoamFile
{
    version     2.0;
    format      ascii;
    arch        "LSB;label=32;scalar=64";
    class       surfaceScalarField;
    location    "9.8";
    object      phi;
}
// * * * * * * * * * * * * * * * * * * * * * * * * * * * * * * * * * * * * * //

dimensions      [1 0 -1 0 0 0 0];

oriented        oriented;

internalField   nonuniform List<scalar> 
23692
(
9.3191e-05
-1.11544e-07
9.33932e-05
-2.02246e-07
9.36765e-05
-2.83222e-07
9.40311e-05
-3.54651e-07
9.44499e-05
-4.18715e-07
9.49266e-05
-4.76735e-07
9.54562e-05
-5.29582e-07
9.60342e-05
-5.77956e-07
9.66566e-05
-6.22402e-07
9.732e-05
-6.63354e-07
9.80212e-05
-7.01165e-07
9.87574e-05
-7.36134e-07
9.95259e-05
-7.68504e-07
0.000100324
-7.98489e-07
0.000101151
-8.26264e-07
0.000102003
-8.51983e-07
0.000102879
-8.75781e-07
0.000103776
-8.97769e-07
0.000104695
-9.1805e-07
0.000105631
-9.36712e-07
0.000106585
-9.53831e-07
0.000107555
-9.69474e-07
0.000108538
-9.837e-07
0.000109535
-9.96564e-07
0.000110543
-1.00811e-06
0.000111562
-1.01839e-06
0.000112589
-1.02743e-06
0.000113625
-1.03526e-06
0.000114666
-1.04192e-06
0.000115714
-1.04743e-06
0.000116766
-1.05181e-06
0.000117821
-1.05508e-06
0.000118878
-1.05726e-06
0.000119937
-1.05837e-06
0.000120995
-1.0584e-06
0.000122053
-1.05737e-06
0.000123108
-1.05528e-06
0.00012416
-1.05214e-06
0.000125208
-1.04794e-06
0.000126251
-1.04268e-06
0.000127287
-1.03634e-06
0.000128316
-1.02891e-06
0.000129336
-1.02037e-06
0.000130347
-1.01071e-06
0.000131347
-9.99874e-07
0.000132335
-9.87842e-07
0.000133309
-9.74563e-07
0.000134269
-9.59983e-07
0.000135214
-9.44035e-07
0.00013614
-9.26641e-07
0.000137048
-9.07708e-07
0.000137935
-8.87126e-07
0.0001388
-8.64764e-07
0.00013964
-8.40469e-07
0.000140454
-8.14054e-07
0.00014124
-7.853e-07
0.000141994
-7.53942e-07
0.000142713
-7.19661e-07
0.000143395
-6.82073e-07
0.000144036
-6.40706e-07
0.000144631
-5.94985e-07
0.000145175
-5.44195e-07
0.000145663
-4.87444e-07
0.000146086
-4.23608e-07
0.000146437
-3.5125e-07
0.000146706
-2.68515e-07
0.000146879
-1.72973e-07
0.00014694
-6.13986e-08
0.00014687
7.05927e-08
0.00014664
2.29153e-07
0.000146217
4.23019e-07
0.000145552
6.64926e-07
0.000144578
9.73935e-07
0.000143199
1.37944e-06
0.000141271
1.92818e-06
0.000138574
2.6966e-06
0.000134761
3.81305e-06
0.000129262
5.49939e-06
0.000121093
8.16814e-06
0.000108418
1.26751e-05
2.15072e-05
8.69111e-05
9.97154e-05
-2.27953e-07
9.99306e-05
-4.17452e-07
0.000100233
-5.85321e-07
0.000100611
-7.33147e-07
0.000101058
-8.65782e-07
0.000101567
-9.85884e-07
0.000102133
-1.09527e-06
0.000102751
-1.19539e-06
0.000103416
-1.28737e-06
0.000104124
-1.37211e-06
0.000104874
-1.45036e-06
0.00010566
-1.52271e-06
0.000106481
-1.58969e-06
0.000107335
-1.65173e-06
0.000108218
-1.70919e-06
0.000109128
-1.76239e-06
0.000110064
-1.81162e-06
0.000111023
-1.8571e-06
0.000112005
-1.89904e-06
0.000113005
-1.93763e-06
0.000114025
-1.97303e-06
0.000115061
-2.00537e-06
0.000116112
-2.03477e-06
0.000117177
-2.06136e-06
0.000118254
-2.08522e-06
0.000119342
-2.10645e-06
0.00012044
-2.12511e-06
0.000121546
-2.14128e-06
0.000122659
-2.15502e-06
0.000123778
-2.16638e-06
0.000124902
-2.1754e-06
0.000126029
-2.18213e-06
0.000127158
-2.18659e-06
0.000128289
-2.18882e-06
0.000129419
-2.18884e-06
0.000130548
-2.18666e-06
0.000131675
-2.1823e-06
0.000132799
-2.17574e-06
0.000133918
-2.167e-06
0.000135032
-2.15606e-06
0.000136138
-2.14289e-06
0.000137237
-2.12747e-06
0.000138326
-2.10976e-06
0.000139405
-2.08971e-06
0.000140473
-2.06726e-06
0.000141527
-2.04232e-06
0.000142567
-2.01481e-06
0.000143592
-1.98461e-06
0.0001446
-1.95159e-06
0.000145589
-1.91559e-06
0.000146557
-1.87642e-06
0.000147504
-1.83385e-06
0.000148427
-1.78762e-06
0.000149324
-1.73741e-06
0.000150193
-1.68284e-06
0.000151031
-1.62348e-06
0.000151836
-1.55878e-06
0.000152604
-1.48809e-06
0.000153333
-1.41065e-06
0.000154017
-1.32549e-06
0.000154654
-1.23147e-06
0.000155237
-1.12715e-06
0.00015576
-1.01075e-06
0.000156216
-8.8003e-07
0.000156597
-7.32157e-07
0.000156892
-5.6348e-07
0.000157089
-3.69258e-07
0.00015717
-1.43239e-07
0.000157118
1.22941e-07
0.000156906
4.40796e-07
0.000156503
8.26435e-07
0.000155865
1.30278e-06
0.000154936
1.90314e-06
0.000153638
2.67692e-06
0.000151868
3.69888e-06
0.00014948
5.08363e-06
0.000146286
7.00716e-06
0.000142049
9.73621e-06
0.000136548
1.36691e-05
0.000129916
1.93075e-05
2.65187e-05
0.000124905
0.000106696
-3.48535e-07
0.000106924
-6.45345e-07
0.000107244
-9.06093e-07
0.000107647
-1.13585e-06
0.000108123
-1.34191e-06
0.000108666
-1.52846e-06
0.000109269
-1.69833e-06
0.000109927
-1.85379e-06
0.000110637
-1.99659e-06
0.000111393
-2.12815e-06
0.000112192
-2.2496e-06
0.000113031
-2.3619e-06
0.000113907
-2.46584e-06
0.000114818
-2.5621e-06
0.00011576
-2.65126e-06
0.000116731
-2.7338e-06
0.00011773
-2.81015e-06
0.000118754
-2.88069e-06
0.0001198
-2.94573e-06
0.000120868
-3.00556e-06
0.000121956
-3.06042e-06
0.000123061
-3.11054e-06
0.000124182
-3.1561e-06
0.000125318
-3.19728e-06
0.000126467
-3.23422e-06
0.000127628
-3.26707e-06
0.000128799
-3.29594e-06
0.000129979
-3.32093e-06
0.000131166
-3.34214e-06
0.000132359
-3.35965e-06
0.000133557
-3.37354e-06
0.000134759
-3.38386e-06
0.000135963
-3.39067e-06
0.000137169
-3.39401e-06
0.000138374
-3.39391e-06
0.000139577
-3.3904e-06
0.000140779
-3.38349e-06
0.000141976
-3.37318e-06
0.000143169
-3.35948e-06
0.000144355
-3.34235e-06
0.000145534
-3.32178e-06
0.000146704
-3.29772e-06
0.000147865
-3.27011e-06
0.000149014
-3.23887e-06
0.00015015
-3.2039e-06
0.000151273
-3.1651e-06
0.000152381
-3.1223e-06
0.000153472
-3.07536e-06
0.000154544
-3.02405e-06
0.000155597
-2.96814e-06
0.000156628
-2.90733e-06
0.000157635
-2.8413e-06
0.000158617
-2.76963e-06
0.000159571
-2.69184e-06
0.000160496
-2.60738e-06
0.000161388
-2.51556e-06
0.000162245
-2.41559e-06
0.000163063
-2.30648e-06
0.00016384
-2.18709e-06
0.00016457
-2.056e-06
0.00016525
-1.91149e-06
0.000165874
-1.75146e-06
0.000166437
-1.5733e-06
0.000166931
-1.37374e-06
0.000167347
-1.1487e-06
0.000167677
-8.92967e-07
0.000167907
-5.9983e-07
0.000168025
-2.60582e-07
0.000168011
1.36195e-07
0.000167846
6.05786e-07
0.000167504
1.16901e-06
0.000166952
1.85451e-06
0.000166153
2.70208e-06
0.000165062
3.76755e-06
0.000163632
5.12954e-06
0.000161817
6.89805e-06
0.000159602
9.22254e-06
0.000157046
1.2292e-05
0.000154411
1.63038e-05
0.000152421
2.12973e-05
2.65517e-05
0.000152388
0.000114164
-4.73e-07
0.000114404
-8.85357e-07
0.000114743
-1.24536e-06
0.000115171
-1.56294e-06
0.000115676
-1.84764e-06
0.000116253
-2.10528e-06
0.000116895
-2.33985e-06
0.000117595
-2.55448e-06
0.000118351
-2.7516e-06
0.000119156
-2.93317e-06
0.000120007
-3.10077e-06
0.000120901
-3.25571e-06
0.000121834
-3.3991e-06
0.000122804
-3.53187e-06
0.000123807
-3.65482e-06
0.000124842
-3.76864e-06
0.000125906
-3.87389e-06
0.000126997
-3.97111e-06
0.000128112
-4.06074e-06
0.000129249
-4.14316e-06
0.000130408
-4.21872e-06
0.000131585
-4.28772e-06
0.000132779
-4.35042e-06
0.000133989
-4.40707e-06
0.000135213
-4.45786e-06
0.000136449
-4.50299e-06
0.000137696
-4.54262e-06
0.000138952
-4.5769e-06
0.000140216
-4.60595e-06
0.000141486
-4.62989e-06
0.000142761
-4.64883e-06
0.00014404
-4.66283e-06
0.000145322
-4.67198e-06
0.000146604
-4.67634e-06
0.000147886
-4.67596e-06
0.000149167
-4.67086e-06
0.000150444
-4.66107e-06
0.000151718
-4.64659e-06
0.000152986
-4.62743e-06
0.000154247
-4.60355e-06
0.0001555
-4.57491e-06
0.000156744
-4.54147e-06
0.000157977
-4.50313e-06
0.000159198
-4.4598e-06
0.000160405
-4.41135e-06
0.000161598
-4.35761e-06
0.000162774
-4.2984e-06
0.000163932
-4.23349e-06
0.000165071
-4.16261e-06
0.000166188
-4.08542e-06
0.000167282
-4.00155e-06
0.000168351
-3.91054e-06
0.000169394
-3.81185e-06
0.000170407
-3.70485e-06
0.000171388
-3.58879e-06
0.000172335
-3.46278e-06
0.000173245
-3.32576e-06
0.000174115
-3.17646e-06
0.000174942
-3.01337e-06
0.00017572
-2.83466e-06
0.000176447
-2.63811e-06
0.000177117
-2.42104e-06
0.000177723
-2.18014e-06
0.000178261
-1.91131e-06
0.000178722
-1.60949e-06
0.000179097
-1.26829e-06
0.000179377
-8.79649e-07
0.000179549
-4.33301e-07
0.000179602
8.38767e-08
0.000179519
6.88833e-07
0.000179284
1.4037e-06
0.000178881
2.25773e-06
0.000178293
3.28927e-06
0.000177513
4.54843e-06
0.000176542
6.09972e-06
0.000175417
8.02347e-06
0.000174227
1.04124e-05
0.000173164
1.33551e-05
0.00017258
1.68878e-05
0.000173009
2.08687e-05
2.47076e-05
0.000174853
0.000122155
-6.01213e-07
0.000122407
-1.13702e-06
0.000122765
-1.60288e-06
0.000123216
-2.01442e-06
0.000123752
-2.3833e-06
0.000124364
-2.717e-06
0.000125044
-3.02074e-06
0.000125789
-3.2986e-06
0.000126591
-3.55376e-06
0.000127446
-3.78872e-06
0.000128351
-4.00557e-06
0.000129302
-4.206e-06
0.000130294
-4.39145e-06
0.000131325
-4.56313e-06
0.000132393
-4.72208e-06
0.000133493
-4.86918e-06
0.000134625
-5.00519e-06
0.000135784
-5.13078e-06
0.00013697
-5.24652e-06
0.00013818
-5.35292e-06
0.000139412
-5.45043e-06
0.000140664
-5.53943e-06
0.000141933
-5.62028e-06
0.00014322
-5.69326e-06
0.000144521
-5.75867e-06
0.000145834
-5.81673e-06
0.00014716
-5.86767e-06
0.000148494
-5.91166e-06
0.000149837
-5.94889e-06
0.000151187
-5.9795e-06
0.000152542
-6.00361e-06
0.0001539
-6.02134e-06
0.000155261
-6.03278e-06
0.000156623
-6.03802e-06
0.000157984
-6.0371e-06
0.000159344
-6.03009e-06
0.0001607
-6.01701e-06
0.000162051
-5.99787e-06
0.000163396
-5.97266e-06
0.000164734
-5.94136e-06
0.000166063
-5.90392e-06
0.000167382
-5.86026e-06
0.000168689
-5.8103e-06
0.000169983
-5.75389e-06
0.000171263
-5.69089e-06
0.000172526
-5.6211e-06
0.000173772
-5.54427e-06
0.000174999
-5.46013e-06
0.000176205
-5.36833e-06
0.000177388
-5.26847e-06
0.000178546
-5.16008e-06
0.000179678
-5.0426e-06
0.000180782
-4.91536e-06
0.000181855
-4.77759e-06
0.000182894
-4.62838e-06
0.000183898
-4.46663e-06
0.000184863
-4.29108e-06
0.000185787
-4.10019e-06
0.000186666
-3.89215e-06
0.000187496
-3.66481e-06
0.000188273
-3.41555e-06
0.000188994
-3.14124e-06
0.000189651
-2.83808e-06
0.000190242
-2.50143e-06
0.000190758
-2.12562e-06
0.000191193
-1.70366e-06
0.00019154
-1.22691e-06
0.000191792
-6.84641e-07
0.000191939
-6.35919e-08
0.000191975
6.52716e-07
0.000191894
1.48447e-06
0.000191695
2.45718e-06
0.000191382
3.60198e-06
0.000190974
4.95612e-06
0.000190512
6.56232e-06
0.000190069
8.46588e-06
0.000189775
1.07068e-05
0.000189828
1.33019e-05
0.000190506
1.62095e-05
0.000192111
1.92642e-05
2.20807e-05
0.000194737
0.000130706
-7.33185e-07
0.000130969
-1.39999e-06
0.000131344
-1.9784e-06
0.00013182
-2.49025e-06
0.000132386
-2.94907e-06
0.000133033
-3.36406e-06
0.000133754
-3.74171e-06
0.000134543
-4.0871e-06
0.000135393
-4.40419e-06
0.000136301
-4.69612e-06
0.000137261
-4.96548e-06
0.000138269
-5.21439e-06
0.000139322
-5.44465e-06
0.000140417
-5.65775e-06
0.00014155
-5.85499e-06
0.000142718
-6.03748e-06
0.000143919
-6.20616e-06
0.000145151
-6.36186e-06
0.000146409
-6.5053e-06
0.000147694
-6.63711e-06
0.000149001
-6.75785e-06
0.00015033
-6.868e-06
0.000151678
-6.96798e-06
0.000153043
-7.05819e-06
0.000154423
-7.13896e-06
0.000155817
-7.21058e-06
0.000157223
-7.27334e-06
0.000158638
-7.32746e-06
0.000160063
-7.37315e-06
0.000161494
-7.4106e-06
0.00016293
-7.43998e-06
0.000164371
-7.46141e-06
0.000165813
-7.47503e-06
0.000167256
-7.48093e-06
0.000168698
-7.47919e-06
0.000170138
-7.46986e-06
0.000171574
-7.453e-06
0.000173005
-7.42862e-06
0.000174429
-7.39671e-06
0.000175845
-7.35724e-06
0.000177251
-7.31016e-06
0.000178646
-7.25539e-06
0.000180029
-7.19282e-06
0.000181397
-7.12229e-06
0.00018275
-7.04362e-06
0.000184085
-6.95658e-06
0.000185402
-6.86089e-06
0.000186698
-6.75621e-06
0.000187972
-6.64215e-06
0.000189222
-6.51824e-06
0.000190446
-6.38392e-06
0.000191642
-6.23854e-06
0.000192808
-6.08134e-06
0.000193941
-5.91142e-06
0.000195041
-5.72773e-06
0.000196103
-5.52902e-06
0.000197126
-5.31385e-06
0.000198106
-5.08051e-06
0.000199041
-4.82696e-06
0.000199927
-4.55082e-06
0.000200761
-4.24925e-06
0.000201538
-3.91886e-06
0.000202256
-3.55561e-06
0.000202909
-3.15467e-06
0.000203494
-2.71024e-06
0.000204005
-2.21536e-06
0.00020444
-1.66164e-06
0.000204794
-1.03904e-06
0.000205066
-3.35544e-07
0.000205256
4.62979e-07
0.000205368
1.37264e-06
0.000205413
2.4124e-06
0.000205411
3.60354e-06
0.000205398
4.96855e-06
0.000205432
6.52909e-06
0.000205596
8.30181e-06
0.000206011
1.0291e-05
0.000206837
1.24765e-05
0.000208252
1.47939e-05
0.000210408
1.7109e-05
1.91936e-05
0.000213294
0.000139855
-8.6903e-07
0.000140129
-1.674e-06
0.000140523
-2.37173e-06
0.000141023
-2.99029e-06
0.000141619
-3.54504e-06
0.000142301
-4.04675e-06
0.000143063
-4.50325e-06
0.000143897
-4.92068e-06
0.000144796
-5.30382e-06
0.000145757
-5.65647e-06
0.000146773
-5.98177e-06
0.000147841
-6.2823e-06
0.000148957
-6.56022e-06
0.000150116
-6.81736e-06
0.000151317
-7.05529e-06
0.000152555
-7.27534e-06
0.000153827
-7.47868e-06
0.000155132
-7.66629e-06
0.000156465
-7.83905e-06
0.000157826
-7.99773e-06
0.000159211
-8.14299e-06
0.000160619
-8.27543e-06
0.000162047
-8.39557e-06
0.000163492
-8.50386e-06
0.000164954
-8.60073e-06
0.00016643
-8.68653e-06
0.000167919
-8.76159e-06
0.000169417
-8.8262e-06
0.000170925
-8.88061e-06
0.000172439
-8.92505e-06
0.000173959
-8.95971e-06
0.000175483
-8.98478e-06
0.000177008
-9.00039e-06
0.000178534
-9.00667e-06
0.000180058
-9.00372e-06
0.00018158
-8.99161e-06
0.000183098
-8.97041e-06
0.000184609
-8.94013e-06
0.000186113
-8.90078e-06
0.000187609
-8.85233e-06
0.000189093
-8.79472e-06
0.000190566
-8.72786e-06
0.000192025
-8.65164e-06
0.000193468
-8.56588e-06
0.000194895
-8.47038e-06
0.000196303
-8.36487e-06
0.000197691
-8.24906e-06
0.000199058
-8.12255e-06
0.000200401
-7.98492e-06
0.000201718
-7.83563e-06
0.000203008
-7.67407e-06
0.000204269
-7.49951e-06
0.000205499
-7.31113e-06
0.000206695
-7.10792e-06
0.000207856
-6.88876e-06
0.00020898
-6.65229e-06
0.000210063
-6.39696e-06
0.000211103
-6.12096e-06
0.000212098
-5.82215e-06
0.000213046
-5.49807e-06
0.000213942
-5.1458e-06
0.000214785
-4.76196e-06
0.000215572
-4.34256e-06
0.000216301
-3.88295e-06
0.000216968
-3.3777e-06
0.000217573
-2.82047e-06
0.000218115
-2.20392e-06
0.000218596
-1.51958e-06
0.000219018
-7.57847e-07
0.000219389
9.20157e-08
0.00021972
1.04128e-06
0.000220031
2.10121e-06
0.000220352
3.28336e-06
0.000220723
4.59742e-06
0.000221203
6.04897e-06
0.000221868
7.63612e-06
0.000222815
9.34462e-06
0.00022415
1.11413e-05
0.000225978
1.29661e-05
0.000228362
1.4725e-05
1.62897e-05
0.000231266
0.000149645
-1.00893e-06
0.00014993
-1.95891e-06
0.000150341
-2.78273e-06
0.000150865
-3.51441e-06
0.000151491
-4.17118e-06
0.00015221
-4.76521e-06
0.000153012
-5.30571e-06
0.000153892
-5.79987e-06
0.000154841
-6.25333e-06
0.000155855
-6.67062e-06
0.000156929
-7.05543e-06
0.000158058
-7.41084e-06
0.000159237
-7.73941e-06
0.000160463
-8.04331e-06
0.000161732
-8.32441e-06
0.000163041
-8.58429e-06
0.000164387
-8.82431e-06
0.000165766
-9.04568e-06
0.000167177
-9.24942e-06
0.000168616
-9.43645e-06
0.00017008
-9.60756e-06
0.000171568
-9.76345e-06
0.000173078
-9.90474e-06
0.000174606
-1.0032e-05
0.000176151
-1.01457e-05
0.000177711
-1.02462e-05
0.000179283
-1.0334e-05
0.000180866
-1.04095e-05
0.000182459
-1.04728e-05
0.000184058
-1.05243e-05
0.000185663
-1.05642e-05
0.000187271
-1.05928e-05
0.000188881
-1.06101e-05
0.00019049
-1.06165e-05
0.000192099
-1.06119e-05
0.000193703
-1.05964e-05
0.000195303
-1.05702e-05
0.000196897
-1.05333e-05
0.000198482
-1.04858e-05
0.000200057
-1.04274e-05
0.000201621
-1.03583e-05
0.000203171
-1.02784e-05
0.000204707
-1.01874e-05
0.000206226
-1.00853e-05
0.000207728
-9.97178e-06
0.00020921
-9.8466e-06
0.00021067
-9.70942e-06
0.000212107
-9.55985e-06
0.00021352
-9.3974e-06
0.000214906
-9.22152e-06
0.000216263
-9.03157e-06
0.000217591
-8.82677e-06
0.000218886
-8.60625e-06
0.000220147
-8.36898e-06
0.000221372
-8.11377e-06
0.000222559
-7.83926e-06
0.000223706
-7.54387e-06
0.00022481
-7.22578e-06
0.000225871
-6.8829e-06
0.000226886
-6.51281e-06
0.000227853
-6.11275e-06
0.00022877
-5.67955e-06
0.000229637
-5.2096e-06
0.000230453
-4.69879e-06
0.000231218
-4.14245e-06
0.000231933
-3.53541e-06
0.000232601
-2.87188e-06
0.000233227
-2.14562e-06
0.000233819
-1.34997e-06
0.000234389
-4.78058e-07
0.000234953
4.76726e-07
0.000235536
1.51909e-06
0.000236167
2.65227e-06
0.000236887
3.87672e-06
0.000237748
5.18805e-06
0.000238809
6.57493e-06
0.000240137
8.01657e-06
0.000241798
9.48013e-06
0.000243846
1.09186e-05
0.0002463
1.2271e-05
1.34666e-05
0.000249123
0.00016012
-1.15311e-06
0.000160416
-2.25463e-06
0.000160845
-3.21128e-06
0.000161393
-4.06249e-06
0.000162049
-4.82741e-06
0.000162803
-5.5195e-06
0.000163647
-6.14926e-06
0.000164572
-6.72497e-06
0.000165572
-7.25319e-06
0.000166641
-7.73916e-06
0.000167773
-8.18719e-06
0.000168963
-8.60086e-06
0.000170206
-8.98316e-06
0.0001715
-9.33664e-06
0.000172839
-9.66346e-06
0.00017422
-9.96547e-06
0.00017564
-1.02443e-05
0.000177096
-1.05013e-05
0.000178584
-1.07377e-05
0.000180103
-1.09546e-05
0.000181648
-1.11529e-05
0.000183218
-1.13334e-05
0.00018481
-1.14968e-05
0.000186422
-1.16438e-05
0.000188052
-1.1775e-05
0.000189696
-1.18909e-05
0.000191354
-1.19919e-05
0.000193023
-1.20784e-05
0.000194702
-1.21508e-05
0.000196387
-1.22094e-05
0.000198077
-1.22545e-05
0.000199771
-1.22864e-05
0.000201466
-1.23052e-05
0.000203161
-1.23111e-05
0.000204853
-1.23043e-05
0.000206542
-1.2285e-05
0.000208225
-1.22531e-05
0.0002099
-1.22089e-05
0.000211567
-1.21522e-05
0.000213223
-1.2083e-05
0.000214866
-1.20015e-05
0.000216495
-1.19073e-05
0.000218108
-1.18006e-05
0.000219704
-1.16809e-05
0.00022128
-1.15482e-05
0.000222836
-1.14022e-05
0.000224369
-1.12425e-05
0.000225878
-1.10687e-05
0.000227361
-1.08803e-05
0.000228816
-1.06768e-05
0.000230242
-1.04575e-05
0.000231637
-1.02217e-05
0.000232999
-9.96846e-06
0.000234327
-9.69676e-06
0.000235619
-9.40546e-06
0.000236873
-9.09325e-06
0.000238087
-8.7586e-06
0.000239261
-8.39983e-06
0.000240393
-8.015e-06
0.000241483
-7.60192e-06
0.000242528
-7.15817e-06
0.000243529
-6.68103e-06
0.000244487
-6.1675e-06
0.000245403
-5.61428e-06
0.000246278
-5.01784e-06
0.000247117
-4.3744e-06
0.000247925
-3.68008e-06
0.000248711
-2.93102e-06
0.000249484
-2.12357e-06
0.000250261
-1.25457e-06
0.000251059
-3.21508e-07
0.000251902
6.76144e-07
0.000252818
1.73575e-06
0.000253843
2.85192e-06
0.000255016
4.01538e-06
0.000256379
5.21173e-06
0.000257975
6.42045e-06
0.000259841
7.61436e-06
0.000261999
8.75997e-06
0.000264451
9.81916e-06
1.07535e-05
0.000267164
0.000171329
-1.3018e-06
0.000171636
-2.56115e-06
0.000172082
-3.6573e-06
0.000172654
-4.63441e-06
0.00017334
-5.51361e-06
0.00017413
-6.30952e-06
0.000175015
-7.03389e-06
0.000175986
-7.6961e-06
0.000177037
-8.30361e-06
0.00017816
-8.86242e-06
0.00017935
-9.37747e-06
0.000180602
-9.85287e-06
0.000181911
-1.02921e-05
0.000183273
-1.0698e-05
0.000184683
-1.10732e-05
0.000186137
-1.14197e-05
0.000187632
-1.17395e-05
0.000189165
-1.2034e-05
0.000190732
-1.23048e-05
0.000192331
-1.25531e-05
0.000193958
-1.27799e-05
0.000195611
-1.29861e-05
0.000197287
-1.31727e-05
0.000198983
-1.33403e-05
0.000200698
-1.34897e-05
0.000202428
-1.36214e-05
0.000204173
-1.37359e-05
0.000205928
-1.38337e-05
0.000207693
-1.39153e-05
0.000209464
-1.3981e-05
0.000211241
-1.40312e-05
0.000213021
-1.4066e-05
0.000214802
-1.40859e-05
0.000216582
-1.4091e-05
0.000218359
-1.40815e-05
0.000220132
-1.40576e-05
0.000221898
-1.40193e-05
0.000223656
-1.39668e-05
0.000225404
-1.39001e-05
0.00022714
-1.38192e-05
0.000228863
-1.37241e-05
0.00023057
-1.36148e-05
0.000232261
-1.34911e-05
0.000233933
-1.33529e-05
0.000235585
-1.31999e-05
0.000237214
-1.30319e-05
0.00023882
-1.28486e-05
0.000240401
-1.26496e-05
0.000241955
-1.24344e-05
0.000243481
-1.22025e-05
0.000244977
-1.19532e-05
0.000246441
-1.16859e-05
0.000247872
-1.13997e-05
0.000249269
-1.10937e-05
0.000250631
-1.07669e-05
0.000251955
-1.04179e-05
0.000253242
-1.00456e-05
0.000254491
-9.64836e-06
0.0002557
-9.22461e-06
0.000256871
-8.77254e-06
0.000258003
-8.29021e-06
0.000259098
-7.77552e-06
0.000260156
-7.22626e-06
0.000261182
-6.64015e-06
0.000262179
-6.01489e-06
0.000263153
-5.34826e-06
0.000264111
-4.63824e-06
0.000265063
-3.8832e-06
0.000266022
-3.08213e-06
0.000267002
-2.23485e-06
0.000268023
-1.34233e-06
0.000269106
-4.06654e-07
0.000270274
5.67311e-07
0.000271554
1.57153e-06
0.000272975
2.59454e-06
0.000274564
3.62267e-06
0.000276346
4.63849e-06
0.000278339
5.62163e-06
0.000280549
6.5495e-06
0.000282969
7.39891e-06
8.14905e-06
0.000285574
0.000183323
-1.4552e-06
0.00018364
-2.87845e-06
0.000184104
-4.12073e-06
0.0001847
-5.23002e-06
0.000185416
-6.22958e-06
0.000186241
-7.1351e-06
0.000187167
-7.95947e-06
0.000188184
-8.71316e-06
0.000189285
-9.40455e-06
0.000190463
-1.00404e-05
0.000191712
-1.06264e-05
0.000193026
-1.11671e-05
0.000194401
-1.16664e-05
0.00019583
-1.21277e-05
0.000197311
-1.25539e-05
0.000198839
-1.29473e-05
0.00020041
-1.33102e-05
0.00020202
-1.36443e-05
0.000203667
-1.39512e-05
0.000205346
-1.42323e-05
0.000207055
-1.44889e-05
0.000208791
-1.47221e-05
0.000210551
-1.49327e-05
0.000212333
-1.51218e-05
0.000214133
-1.52899e-05
0.00021595
-1.54379e-05
0.00021778
-1.55663e-05
0.000219622
-1.56757e-05
0.000221473
-1.57665e-05
0.000223332
-1.58392e-05
0.000225195
-1.58942e-05
0.000227061
-1.59318e-05
0.000228927
-1.59523e-05
0.000230792
-1.5956e-05
0.000232654
-1.59431e-05
0.00023451
-1.59139e-05
0.00023636
-1.58684e-05
0.0002382
-1.58068e-05
0.000240029
-1.57292e-05
0.000241845
-1.56356e-05
0.000243647
-1.5526e-05
0.000245433
-1.54005e-05
0.000247201
-1.52588e-05
0.000248949
-1.51009e-05
0.000250676
-1.49266e-05
0.00025238
-1.47357e-05
0.000254059
-1.45279e-05
0.000255712
-1.43029e-05
0.000257338
-1.40602e-05
0.000258935
-1.37993e-05
0.000260502
-1.35199e-05
0.000262037
-1.3221e-05
0.000263539
-1.29022e-05
0.000265008
-1.25626e-05
0.000266442
-1.22012e-05
0.000267842
-1.18172e-05
0.000269206
-1.14094e-05
0.000270534
-1.09767e-05
0.000271827
-1.05178e-05
0.000273086
-1.00315e-05
0.000274312
-9.5164e-06
0.000275508
-8.9711e-06
0.000276676
-8.3943e-06
0.00027782
-7.78477e-06
0.000278947
-7.14145e-06
0.000280062
-6.46356e-06
0.000281175
-5.75073e-06
0.000282295
-5.00316e-06
0.000283434
-4.22183e-06
0.000284608
-3.40864e-06
0.000285832
-2.56668e-06
0.000287126
-1.70028e-06
0.000288508
-8.14897e-07
0.000289998
8.19607e-08
0.000291612
9.79934e-07
0.000293368
1.86696e-06
0.000295278
2.72858e-06
0.000297348
3.55091e-06
0.000299579
4.31918e-06
0.000301958
5.01944e-06
5.64057e-06
0.000304466
0.000196157
-1.61348e-06
0.000196485
-3.20653e-06
0.000196965
-4.60141e-06
0.000197584
-5.84912e-06
0.00019833
-6.97504e-06
0.000199191
-7.9959e-06
0.000200157
-8.92564e-06
0.00020122
-9.77581e-06
0.000202371
-1.05557e-05
0.000203604
-1.12729e-05
0.000204911
-1.19337e-05
0.000206287
-1.25432e-05
0.000207727
-1.31059e-05
0.000209225
-1.36256e-05
0.000210776
-1.41055e-05
0.000212377
-1.45483e-05
0.000214024
-1.49564e-05
0.000215711
-1.53319e-05
0.000217437
-1.56766e-05
0.000219197
-1.59921e-05
0.000220988
-1.62799e-05
0.000222807
-1.6541e-05
0.000224651
-1.67767e-05
0.000226517
-1.69879e-05
0.000228403
-1.71754e-05
0.000230305
-1.73401e-05
0.000232222
-1.74827e-05
0.00023415
-1.76037e-05
0.000236087
-1.77037e-05
0.000238032
-1.77833e-05
0.000239981
-1.78429e-05
0.000241932
-1.78828e-05
0.000243883
-1.79036e-05
0.000245833
-1.79053e-05
0.000247778
-1.78885e-05
0.000249717
-1.78532e-05
0.000251649
-1.77997e-05
0.00025357
-1.77282e-05
0.00025548
-1.76387e-05
0.000257376
-1.75314e-05
0.000259256
-1.74064e-05
0.000261119
-1.72636e-05
0.000262963
-1.7103e-05
0.000264787
-1.69245e-05
0.000266589
-1.6728e-05
0.000268366
-1.65134e-05
0.000270119
-1.62804e-05
0.000271845
-1.60288e-05
0.000273543
-1.57582e-05
0.000275212
-1.54683e-05
0.000276851
-1.51587e-05
0.000278459
-1.48288e-05
0.000280034
-1.4478e-05
0.000281578
-1.41059e-05
0.000283088
-1.37118e-05
0.000284566
-1.32949e-05
0.000286011
-1.28545e-05
0.000287424
-1.23899e-05
0.000288807
-1.19003e-05
0.00029016
-1.13849e-05
0.000291487
-1.0843e-05
0.00029279
-1.02741e-05
0.000294073
-9.67769e-06
0.000295342
-9.05349e-06
0.000296602
-8.40155e-06
0.000297861
-7.72231e-06
0.000299127
-7.01667e-06
0.000300409
-6.28615e-06
0.000301721
-5.53301e-06
0.000303072
-4.76036e-06
0.000304478
-3.97226e-06
0.000305951
-3.17381e-06
0.000307507
-2.3711e-06
0.000309161
-1.57116e-06
0.000310922
-7.81299e-07
0.000312798
-9.81339e-09
0.000314796
7.30851e-07
0.000316914
1.43284e-06
0.000319148
2.08574e-06
0.000321486
2.68096e-06
3.2128e-06
0.000323914
0.000209888
-1.77674e-06
0.000210227
-3.54532e-06
0.000210725
-5.09912e-06
0.000211367
-6.49136e-06
0.000212142
-7.74954e-06
0.000213037
-8.89139e-06
0.000214044
-9.93183e-06
0.000215151
-1.08834e-05
0.000216352
-1.17565e-05
0.000217638
-1.25592e-05
0.000219004
-1.32987e-05
0.000220441
-1.39806e-05
0.000221945
-1.461e-05
0.000223511
-1.5191e-05
0.000225133
-1.57272e-05
0.000226806
-1.62218e-05
0.000228527
-1.66773e-05
0.000230292
-1.70962e-05
0.000232096
-1.74804e-05
0.000233935
-1.78318e-05
0.000235808
-1.81519e-05
0.000237709
-1.84421e-05
0.000239636
-1.87037e-05
0.000241586
-1.89377e-05
0.000243556
-1.91452e-05
0.000245543
-1.9327e-05
0.000247544
-1.94839e-05
0.000249557
-1.96167e-05
0.00025158
-1.97259e-05
0.000253609
-1.98122e-05
0.000255642
-1.98761e-05
0.000257677
-1.9918e-05
0.000259712
-1.99383e-05
0.000261744
-1.99376e-05
0.000263772
-1.9916e-05
0.000265793
-1.9874e-05
0.000267805
-1.98116e-05
0.000269806
-1.97293e-05
0.000271795
-1.96271e-05
0.000273769
-1.95053e-05
0.000275726
-1.93639e-05
0.000277666
-1.92029e-05
0.000279585
-1.90226e-05
0.000281484
-1.88227e-05
0.000283359
-1.86034e-05
0.00028521
-1.83645e-05
0.000287036
-1.81058e-05
0.000288834
-1.78274e-05
0.000290605
-1.75289e-05
0.000292347
-1.72101e-05
0.000294059
-1.68707e-05
0.000295741
-1.65106e-05
0.000297392
-1.61292e-05
0.000299012
-1.57263e-05
0.000300602
-1.53015e-05
0.000302161
-1.48545e-05
0.000303692
-1.43848e-05
0.000305194
-1.38922e-05
0.00030667
-1.33764e-05
0.000308122
-1.28372e-05
0.000309554
-1.22746e-05
0.000310968
-1.16886e-05
0.00031237
-1.10796e-05
0.000313765
-1.04482e-05
0.000315159
-9.79524e-06
0.000316558
-9.12207e-06
0.000317972
-8.43047e-06
0.000319409
-7.72275e-06
0.000320878
-7.00185e-06
0.000322389
-6.27135e-06
0.000323952
-5.53549e-06
0.000325577
-4.79922e-06
0.000327274
-4.0681e-06
0.000329051
-3.34823e-06
0.000330916
-2.64602e-06
0.000332874
-1.96815e-06
0.000334925
-1.3205e-06
0.000337068
-7.09378e-07
0.000339294
-1.40601e-07
0.000341594
3.80764e-07
8.51652e-07
0.000343955
0.000224582
-1.94501e-06
0.000224931
-3.89467e-06
0.000225445
-5.61351e-06
0.00022611
-7.15624e-06
0.000226913
-8.55241e-06
0.000227843
-9.82076e-06
0.000228888
-1.09771e-05
0.00023004
-1.20351e-05
0.000231289
-1.30057e-05
0.000232628
-1.38982e-05
0.00023405
-1.47202e-05
0.000235547
-1.54781e-05
0.000237115
-1.61774e-05
0.000238747
-1.68226e-05
0.000240437
-1.74179e-05
0.000242182
-1.79665e-05
0.000243977
-1.84716e-05
0.000245816
-1.89357e-05
0.000247697
-1.9361e-05
0.000249615
-1.97497e-05
0.000251567
-2.01034e-05
0.000253548
-2.04237e-05
0.000255557
-2.0712e-05
0.000257589
-2.09696e-05
0.000259641
-2.11974e-05
0.000261711
-2.13967e-05
0.000263795
-2.15681e-05
0.000265891
-2.17127e-05
0.000267996
-2.1831e-05
0.000270108
-2.19237e-05
0.000272224
-2.19915e-05
0.000274341
-2.20349e-05
0.000276457
-2.20544e-05
0.00027857
-2.20505e-05
0.000280678
-2.20236e-05
0.000282778
-2.1974e-05
0.000284868
-2.19021e-05
0.000286947
-2.18081e-05
0.000289013
-2.16924e-05
0.000291063
-2.15552e-05
0.000293095
-2.13966e-05
0.000295109
-2.12168e-05
0.000297103
-2.10159e-05
0.000299074
-2.07941e-05
0.000301022
-2.05514e-05
0.000302946
-2.02879e-05
0.000304844
-2.00035e-05
0.000306714
-1.96982e-05
0.000308558
-1.9372e-05
0.000310373
-1.90249e-05
0.000312159
-1.86568e-05
0.000313916
-1.82676e-05
0.000315644
-1.78572e-05
0.000317343
-1.74256e-05
0.000319014
-1.69727e-05
0.000320658
-1.64985e-05
0.000322276
-1.60031e-05
0.000323871
-1.54865e-05
0.000325444
-1.49491e-05
0.000326997
-1.43911e-05
0.000328536
-1.38131e-05
0.000330063
-1.32158e-05
0.000331584
-1.26001e-05
0.000333103
-1.19673e-05
0.000334626
-1.13188e-05
0.000336161
-1.06565e-05
0.000337713
-9.98274e-06
0.00033929
-9.30018e-06
0.0003409
-8.61194e-06
0.00034255
-7.92159e-06
0.000344248
-7.23308e-06
0.000346
-6.55076e-06
0.000347811
-5.87927e-06
0.000349686
-5.22344e-06
0.000351628
-4.58819e-06
0.000353638
-3.9783e-06
0.000355716
-3.39827e-06
0.000357859
-2.85228e-06
0.000360062
-2.34375e-06
0.000362317
-1.87462e-06
-1.44596e-06
0.000364615
0.000240303
-2.11823e-06
0.000240663
-4.25432e-06
0.000241193
-6.14402e-06
0.00024188
-7.84299e-06
0.00024271
-9.3827e-06
0.000243673
-1.07829e-05
0.000244756
-1.20602e-05
0.00024595
-1.32292e-05
0.000247246
-1.43019e-05
0.000248636
-1.52883e-05
0.000250113
-1.61966e-05
0.000251669
-1.70339e-05
0.000253298
-1.78061e-05
0.000254993
-1.85184e-05
0.000256751
-1.91752e-05
0.000258565
-1.97803e-05
0.00026043
-2.03369e-05
0.000262343
-2.0848e-05
0.000264298
-2.13161e-05
0.000266292
-2.17434e-05
0.00026832
-2.21318e-05
0.00027038
-2.24832e-05
0.000272467
-2.2799e-05
0.000274578
-2.30806e-05
0.00027671
-2.33293e-05
0.00027886
-2.35462e-05
0.000281024
-2.37323e-05
0.0002832
-2.38886e-05
0.000285385
-2.40158e-05
0.000287577
-2.41147e-05
0.000289771
-2.41861e-05
0.000291967
-2.42306e-05
0.000294161
-2.42487e-05
0.000296352
-2.4241e-05
0.000298537
-2.4208e-05
0.000300713
-2.41502e-05
0.000302879
-2.40679e-05
0.000305032
-2.39616e-05
0.000307172
-2.38316e-05
0.000309295
-2.36783e-05
0.0003114
-2.35018e-05
0.000313486
-2.33026e-05
0.000315551
-2.30808e-05
0.000317594
-2.28366e-05
0.000319613