/*--------------------------------*- C++ -*----------------------------------*\
| =========                 |                                                 |
| \\      /  F ield         | OpenFOAM: The Open Source CFD Toolbox           |
|  \\    /   O peration     | Version:  2106                                  |
|   \\  /    A nd           | Website:  www.openfoam.com                      |
|    \\/     M anipulation  |                                                 |
\*---------------------------------------------------------------------------*/
FoamFile
{
    version     2.0;
    format      ascii;
    arch        "LSB;label=32;scalar=64";
    class       volScalarField;
    location    "9.8";
    object      T;
}
// * * * * * * * * * * * * * * * * * * * * * * * * * * * * * * * * * * * * * //

dimensions      [0 0 0 1 0 0 0];

internalField   nonuniform List<scalar> 
12013
(
300.004
300.011
300.019
300.027
300.036
300.044
300.053
300.063
300.073
300.083
300.093
300.104
300.115
300.127
300.139
300.152
300.164
300.178
300.191
300.206
300.22
300.235
300.251
300.267
300.283
300.3
300.318
300.336
300.354
300.373
300.393
300.413
300.434
300.456
300.478
300.5
300.523
300.547
300.572
300.597
300.623
300.65
300.678
300.706
300.735
300.765
300.795
300.827
300.859
300.892
300.927
300.962
300.998
301.035
301.073
301.113
301.153
301.195
301.238
301.282
301.328
301.375
301.424
301.474
301.526
301.579
301.635
301.693
301.752
301.815
301.879
301.947
302.018
302.093
302.172
302.257
302.347
302.445
302.553
302.677
302.824
300.004
300.011
300.019
300.027
300.036
300.044
300.053
300.063
300.073
300.083
300.093
300.104
300.115
300.127
300.139
300.152
300.164
300.178
300.191
300.206
300.22
300.235
300.251
300.267
300.283
300.3
300.318
300.336
300.354
300.373
300.393
300.413
300.434
300.456
300.478
300.5
300.523
300.547
300.572
300.597
300.623
300.65
300.677
300.706
300.735
300.764
300.795
300.827
300.859
300.892
300.926
300.962
300.998
301.035
301.073
301.113
301.153
301.195
301.238
301.282
301.328
301.375
301.423
301.473
301.525
301.579
301.634
301.691
301.751
301.813
301.878
301.945
302.016
302.09
302.169
302.252
302.341
302.436
302.541
302.655
302.781
300.004
300.011
300.019
300.027
300.036
300.044
300.053
300.063
300.073
300.083
300.093
300.104
300.115
300.127
300.139
300.152
300.164
300.178
300.191
300.206
300.22
300.235
300.251
300.267
300.283
300.3
300.318
300.336
300.354
300.373
300.393
300.413
300.434
300.455
300.477
300.5
300.523
300.547
300.572
300.597
300.623
300.65
300.677
300.706
300.735
300.764
300.795
300.826
300.859
300.892
300.926
300.961
300.997
301.035
301.073
301.112
301.153
301.194
301.237
301.281
301.327
301.374
301.422
301.472
301.523
301.577
301.632
301.689
301.748
301.81
301.874
301.941
302.011
302.084
302.161
302.242
302.328
302.419
302.517
302.62
302.727
300.004
300.011
300.019
300.027
300.036
300.044
300.053
300.063
300.073
300.083
300.093
300.104
300.115
300.127
300.139
300.152
300.164
300.178
300.191
300.206
300.22
300.235
300.251
300.267
300.283
300.3
300.318
300.336
300.354
300.373
300.393
300.413
300.434
300.455
300.477
300.5
300.523
300.547
300.572
300.597
300.623
300.65
300.677
300.705
300.734
300.764
300.795
300.826
300.858
300.892
300.926
300.961
300.997
301.034
301.072
301.111
301.152
301.193
301.236
301.28
301.325
301.372
301.42
301.47
301.521
301.574
301.629
301.685
301.744
301.805
301.868
301.934
302.003
302.074
302.149
302.227
302.309
302.395
302.484
302.576
302.669
300.004
300.011
300.019
300.027
300.036
300.044
300.053
300.063
300.073
300.083
300.093
300.104
300.115
300.127
300.139
300.152
300.164
300.178
300.191
300.206
300.22
300.235
300.251
300.267
300.283
300.3
300.318
300.336
300.354
300.373
300.393
300.413
300.434
300.455
300.477
300.5
300.523
300.547
300.572
300.597
300.623
300.649
300.677
300.705
300.734
300.764
300.794
300.825
300.858
300.891
300.925
300.96
300.996
301.033
301.071
301.11
301.15
301.191
301.234
301.278
301.323
301.369
301.417
301.466
301.517
301.57
301.624
301.68
301.738
301.798
301.86
301.924
301.991
302.06
302.132
302.207
302.284
302.364
302.446
302.528
302.611
300.004
300.011
300.019
300.027
300.036
300.044
300.053
300.063
300.073
300.083
300.093
300.104
300.115
300.127
300.139
300.152
300.164
300.178
300.191
300.206
300.22
300.235
300.251
300.267
300.283
300.3
300.318
300.336
300.354
300.373
300.393
300.413
300.434
300.455
300.477
300.5
300.523
300.547
300.571
300.596
300.622
300.649
300.676
300.704
300.733
300.763
300.793
300.825
300.857
300.89
300.924
300.959
300.994
301.031
301.069
301.108
301.148
301.189
301.231
301.275
301.32
301.366
301.413
301.462
301.512
301.564
301.617
301.672
301.729
301.788
301.849
301.911
301.976
302.042
302.111
302.182
302.254
302.328
302.403
302.478
302.551
300.004
300.011
300.019
300.027
300.036
300.044
300.053
300.063
300.073
300.083
300.093
300.104
300.115
300.127
300.139
300.152
300.164
300.178
300.191
300.205
300.22
300.235
300.251
300.267
300.283
300.3
300.317
300.335
300.354
300.373
300.393
300.413
300.434
300.455
300.477
300.499
300.523
300.546
300.571
300.596
300.622
300.648
300.676
300.704
300.732
300.762
300.792
300.824
300.856
300.889
300.922
300.957
300.993
301.029
301.067
301.106
301.145
301.186
301.228
301.271
301.315
301.361
301.408
301.456
301.506
301.557
301.609
301.663
301.719
301.776
301.834
301.895
301.957
302.021
302.086
302.152
302.22
302.288
302.357
302.425
302.492
300.004
300.011
300.019
300.027
300.036
300.044
300.053
300.063
300.073
300.083
300.093
300.104
300.115
300.127
300.139
300.151
300.164
300.178
300.191
300.205
300.22
300.235
300.251
300.266
300.283
300.3
300.317
300.335
300.354
300.373
300.392
300.413
300.433
300.455
300.476
300.499
300.522
300.546
300.57
300.595
300.621
300.648
300.675
300.703
300.731
300.761
300.791
300.822
300.854
300.887
300.921
300.955
300.99
301.027
301.064
301.103
301.142
301.182
301.224
301.266
301.31
301.355
301.401
301.449
301.497
301.547
301.599
301.651
301.705
301.761
301.817
301.875
301.935
301.995
302.057
302.119
302.182
302.245
302.308
302.371
302.432
300.004
300.011
300.019
300.027
300.035
300.044
300.053
300.063
300.073
300.083
300.093
300.104
300.115
300.127
300.139
300.151
300.164
300.178
300.191
300.205
300.22
300.235
300.25
300.266
300.283
300.3
300.317
300.335
300.354
300.373
300.392
300.412
300.433
300.454
300.476
300.498
300.522
300.545
300.57
300.595
300.62
300.647
300.674
300.702
300.73
300.76
300.79
300.821
300.852
300.885
300.918
300.952
300.988
301.024
301.061
301.099
301.138
301.178
301.219
301.261
301.304
301.348
301.393
301.44
301.487
301.536
301.586
301.637
301.689
301.743
301.797
301.853
301.909
301.966
302.024
302.083
302.141
302.2
302.258
302.315
302.372
300.004
300.011
300.019
300.027
300.035
300.044
300.053
300.063
300.073
300.083
300.093
300.104
300.115
300.127
300.139
300.151
300.164
300.177
300.191
300.205
300.22
300.235
300.25
300.266
300.283
300.3
300.317
300.335
300.353
300.372
300.392
300.412
300.432
300.454
300.475
300.498
300.521
300.545
300.569
300.594
300.619
300.646
300.673
300.7
300.729
300.758
300.788
300.818
300.85
300.882
300.915
300.949
300.984
301.02
301.056
301.094
301.132
301.172
301.212
301.253
301.296
301.339
301.383
301.429
301.475
301.523
301.571
301.62
301.671
301.722
301.774
301.827
301.88
301.934
301.989
302.043
302.098
302.152
302.206
302.259
302.311
300.004
300.011
300.019
300.027
300.035
300.044
300.053
300.063
300.073
300.083
300.093
300.104
300.115
300.127
300.139
300.151
300.164
300.177
300.191
300.205
300.22
300.235
300.25
300.266
300.282
300.299
300.317
300.335
300.353
300.372
300.391
300.411
300.432
300.453
300.475
300.497
300.52
300.544
300.568
300.593
300.618
300.644
300.671
300.699
300.727
300.756
300.785
300.816
300.847
300.879
300.912
300.946
300.98
301.015
301.051
301.088
301.126
301.165
301.204
301.245
301.286
301.329
301.372
301.416
301.461
301.507
301.554
301.601
301.65
301.699
301.748
301.798
301.849
301.9
301.951
302.002
302.052
302.103
302.153
302.202
302.25
300.004
300.011
300.019
300.027
300.035
300.044
300.053
300.063
300.072
300.083
300.093
300.104
300.115
300.127
300.139
300.151
300.164
300.177
300.191
300.205
300.22
300.234
300.25
300.266
300.282
300.299
300.316
300.334
300.353
300.371
300.391
300.411
300.431
300.452
300.474
300.496
300.519
300.543
300.567
300.591
300.617
300.643
300.669
300.697
300.725
300.753
300.783
300.813
300.844
300.875
300.908
300.941
300.975
301.01
301.045
301.082
301.119
301.157
301.195
301.235
301.275
301.317
301.359
301.401
301.445
301.489
301.534
301.58
301.626
301.672
301.72
301.767
301.815
301.862
301.91
301.958
302.005
302.052
302.098
302.144
302.188
300.004
300.011
300.019
300.027
300.035
300.044
300.053
300.063
300.072
300.083
300.093
300.104
300.115
300.127
300.139
300.151
300.164
300.177
300.191
300.205
300.219
300.234
300.25
300.266
300.282
300.299
300.316
300.334
300.352
300.371
300.39
300.41
300.431
300.452
300.473
300.495
300.518
300.541
300.565
300.59
300.615
300.641
300.667
300.694
300.722
300.75
300.779
300.809
300.84
300.871
300.903
300.936
300.969
301.003
301.038
301.074
301.11
301.147
301.185
301.224
301.263
301.303
301.343
301.385
301.427
301.469
301.512
301.556
301.6
301.644
301.688
301.733
301.778
301.823
301.868
301.912
301.956
302
302.043
302.085
302.127
300.004
300.011
300.019
300.027
300.035
300.044
300.053
300.063
300.072
300.083
300.093
300.104
300.115
300.127
300.139
300.151
300.164
300.177
300.191
300.205
300.219
300.234
300.249
300.265
300.281
300.298
300.316
300.333
300.351
300.37
300.39
300.409
300.43
300.451
300.472
300.494
300.516
300.54
300.563
300.588
300.613
300.638
300.664
300.691
300.719
300.747
300.776
300.805
300.835
300.866
300.897
300.929
300.962
300.996
301.03
301.065
301.1
301.136
301.173
301.21
301.248
301.287
301.326
301.366
301.406
301.447
301.488
301.529
301.571
301.613
301.655
301.697
301.739
301.781
301.823
301.865
301.906
301.946
301.986
302.026
302.065
300.004
300.011
300.019
300.027
300.035
300.044
300.053
300.063
300.072
300.082
300.093
300.104
300.115
300.127
300.138
300.151
300.164
300.177
300.19
300.204
300.219
300.234
300.249
300.265
300.281
300.298
300.315
300.333
300.351
300.369
300.389
300.408
300.429
300.449
300.471
300.492
300.515
300.538
300.561
300.585
300.61
300.635
300.661
300.688
300.715
300.743
300.771
300.8
300.83
300.86
300.891
300.922
300.954
300.987
301.02
301.054
301.089
301.124
301.159
301.196
301.232
301.269
301.307
301.345
301.384
301.422
301.462
301.501
301.54
301.58
301.62
301.659
301.699
301.738
301.777
301.816
301.854
301.892
301.93
301.966
302.002
300.004
300.011
300.019
300.027
300.035
300.044
300.053
300.063
300.072
300.082
300.093
300.104
300.115
300.126
300.138
300.151
300.163
300.177
300.19
300.204
300.218
300.233
300.249
300.264
300.281
300.297
300.314
300.332
300.35
300.369
300.388
300.407
300.427
300.448
300.469
300.491
300.513
300.536
300.559
300.583
300.607
300.632
300.658
300.684
300.711
300.738
300.766
300.794
300.823
300.853
300.883
300.914
300.945
300.977
301.009
301.042
301.076
301.11
301.144
301.179
301.214
301.25
301.286
301.322
301.359
301.396
301.433
301.47
301.508
301.545
301.582
301.62
301.657
301.693
301.73
301.766
301.802
301.837
301.872
301.906
301.94
300.004
300.011
300.019
300.027
300.035
300.044
300.053
300.062
300.072
300.082
300.093
300.104
300.115
300.126
300.138
300.15
300.163
300.176
300.19
300.204
300.218
300.233
300.248
300.264
300.28
300.296
300.313
300.331
300.349
300.367
300.386
300.406
300.426
300.446
300.467
300.489
300.511
300.533
300.556
300.58
300.604
300.628
300.654
300.679
300.706
300.732
300.76
300.788
300.816
300.845
300.874
300.904
300.935
300.966
300.997
301.029
301.061
301.094
301.127
301.161
301.195
301.229
301.263
301.298
301.333
301.368
301.403
301.438
301.473
301.508
301.543
301.578
301.613
301.647
301.682
301.715
301.749
301.782
301.814
301.846
301.878
300.004
300.011
300.019
300.027
300.035
300.044
300.053
300.062
300.072
300.082
300.093
300.103
300.115
300.126
300.138
300.15
300.163
300.176
300.189
300.203
300.218
300.232
300.248
300.263
300.279
300.296
300.313
300.33
300.348
300.366
300.385
300.404
300.424
300.444
300.465
300.486
300.508
300.53
300.553
300.576
300.6
300.624
300.649
300.674
300.7
300.726
300.753
300.78
300.808
300.836
300.865
300.894
300.923
300.953
300.984
301.015
301.046
301.077
301.109
301.141
301.173
301.206
301.239
301.272
301.305
301.338
301.371
301.404
301.437
301.47
301.503
301.536
301.568
301.601
301.632
301.664
301.695
301.726
301.756
301.786
301.816
300.004
300.011
300.019
300.027
300.035
300.044
300.053
300.062
300.072
300.082
300.092
300.103
300.114
300.126
300.138
300.15
300.163
300.176
300.189
300.203
300.217
300.232
300.247
300.262
300.278
300.295
300.312
300.329
300.347
300.365
300.383
300.402
300.422
300.442
300.462
300.483
300.505
300.527
300.549
300.572
300.595
300.619
300.643
300.668
300.693
300.719
300.745
300.772
300.799
300.826
300.854
300.882
300.911
300.94
300.969
300.999
301.029
301.059
301.089
301.12
301.151
301.182
301.213
301.244
301.275
301.307
301.338
301.369
301.4
301.431
301.462
301.493
301.523
301.553
301.583
301.612
301.641
301.67
301.698
301.726
301.754
300.004
300.011
300.019
300.027
300.035
300.044
300.053
300.062
300.072
300.082
300.092
300.103
300.114
300.126
300.137
300.15
300.162
300.175
300.189
300.202
300.217
300.231
300.246
300.262
300.277
300.294
300.31
300.327
300.345
300.363
300.381
300.4
300.42
300.439
300.46
300.48
300.501
300.523
300.545
300.567
300.59
300.614
300.637
300.662
300.686
300.711
300.737
300.762
300.789
300.815
300.842
300.869
300.897
300.925
300.953
300.981
301.01
301.039
301.068
301.097
301.126
301.156
301.185
301.215
301.244
301.274
301.303
301.333
301.362
301.391
301.42
301.448
301.477
301.505
301.533
301.56
301.587
301.614
301.641
301.667
301.692
300.004
300.011
300.019
300.027
300.035
300.044
300.053
300.062
300.072
300.082
300.092
300.103
300.114
300.125
300.137
300.149
300.162
300.175
300.188
300.202
300.216
300.23
300.245
300.261
300.276
300.292
300.309
300.326
300.343
300.361
300.379
300.398
300.417
300.437
300.456
300.477
300.498
300.519
300.54
300.562
300.585
300.608
300.631
300.654
300.678
300.703
300.727
300.752
300.778
300.803
300.829
300.856
300.882
300.909
300.936
300.963
300.99
301.018
301.045
301.073
301.101
301.129
301.157
301.185
301.212
301.24
301.268
301.295
301.323
301.35
301.377
301.404
301.43
301.457
301.483
301.508
301.534
301.559
301.583
301.608
301.632
300.004
300.011
300.019
300.027
300.035
300.044
300.053
300.062
300.072
300.082
300.092
300.103
300.114
300.125
300.137
300.149
300.161
300.174
300.187
300.201
300.215
300.229
300.244
300.259
300.275
300.291
300.307
300.324
300.341
300.359
300.377
300.395
300.414
300.433
300.453
300.473
300.493
300.514
300.535
300.557
300.579
300.601
300.623
300.646
300.67
300.693
300.717
300.741
300.766
300.791
300.815
300.841
300.866
300.892
300.918
300.943
300.97
300.996
301.022
301.048
301.075
301.101
301.127
301.153
301.18
301.206
301.232
301.258
301.283
301.309
301.334
301.359
301.384
301.409
301.433
301.457
301.48
301.504
301.527
301.55
301.572
300.004
300.011
300.019
300.027
300.035
300.044
300.053
300.062
300.071
300.081
300.092
300.102
300.113
300.125
300.136
300.148
300.161
300.173
300.187
300.2
300.214
300.228
300.243
300.258
300.274
300.289
300.306
300.322
300.339
300.356
300.374
300.392
300.411
300.43
300.449
300.468
300.488
300.509
300.529
300.55
300.572
300.593
300.615
300.638
300.66
300.683
300.706
300.729
300.753
300.777
300.801
300.825
300.849
300.874
300.898
300.923
300.948
300.973
300.998
301.022
301.047
301.072
301.097
301.122
301.146
301.171
301.195
301.22
301.244
301.267
301.291
301.315
301.338
301.361
301.383
301.406
301.428
301.45
301.471
301.492
301.513
300.004
300.011
300.019
300.027
300.035
300.043
300.052
300.062
300.071
300.081
300.091
300.102
300.113
300.124
300.136
300.148
300.16
300.173
300.186
300.199
300.213
300.227
300.242
300.257
300.272
300.288
300.304
300.32
300.337
300.354
300.371
300.389
300.407
300.426
300.445
300.464
300.483
300.503
300.523
300.544
300.564
300.585
300.607
300.628
300.65
300.672
300.694
300.717
300.74
300.762
300.785
300.808
300.832
300.855
300.878
300.902
300.925
300.949
300.973
300.996
301.02
301.043
301.066
301.09
301.113
301.136
301.159
301.181
301.204
301.226
301.249
301.27
301.292
301.314
301.335
301.356
301.376
301.397
301.417
301.437
301.456
300.004
300.011
300.019
300.027
300.035
300.043
300.052
300.061
300.071
300.081
300.091
300.102
300.112
300.124
300.135
300.147
300.159
300.172
300.185
300.198
300.212
300.226
300.24
300.255
300.27
300.286
300.301
300.317
300.334
300.351
300.368
300.385
300.403
300.421
300.44
300.459
300.478
300.497
300.517
300.536
300.557
300.577
300.598
300.618
300.639
300.661
300.682
300.704
300.725
300.747
300.769
300.791
300.813
300.836
300.858
300.88
300.903
300.925
300.947
300.969
300.992
301.014
301.036
301.058
301.079
301.101
301.122
301.144
301.165
301.186
301.207
301.227
301.247
301.267
301.287
301.307
301.326
301.345
301.364
301.382
301.401
300.004
300.011
300.019
300.026
300.035
300.043
300.052
300.061
300.071
300.08
300.091
300.101
300.112
300.123
300.135
300.146
300.159
300.171
300.184
300.197
300.211
300.225
300.239
300.253
300.268
300.283
300.299
300.315
300.331
300.348
300.364
300.382
300.399
300.417
300.435
300.453
300.472
300.49
300.509
300.529
300.548
300.568
300.588
300.608
300.628
300.649
300.669
300.69
300.711
300.732
300.753
300.774
300.795
300.816
300.837
300.858
300.88
300.901
300.922
300.943
300.964
300.984
301.005
301.026
301.046
301.067
301.087
301.107
301.126
301.146
301.166
301.185
301.204
301.222
301.241
301.259
301.277
301.295
301.313
301.33
301.347
300.004
300.011
300.018
300.026
300.034
300.043
300.052
300.061
300.07
300.08
300.09
300.101
300.111
300.122
300.134
300.146
300.158
300.17
300.183
300.196
300.209
300.223
300.237
300.251
300.266
300.281
300.296
300.312
300.328
300.344
300.361
300.377
300.394
300.412
300.429
300.447
300.465
300.484
300.502
300.521
300.54
300.559
300.578
300.597
300.617
300.636
300.656
300.676
300.696
300.716
300.736
300.756
300.776
300.796
300.816
300.836
300.856
300.876
300.896
300.916
300.936
300.956
300.975
300.995
301.014
301.033
301.052
301.071
301.089
301.108
301.126
301.144
301.162
301.179
301.197
301.214
301.231
301.247
301.264
301.28
301.296
300.004
300.011
300.018
300.026
300.034
300.043
300.052
300.061
300.07
300.08
300.09
300.1
300.111
300.122
300.133
300.145
300.157
300.169
300.182
300.195
300.208
300.221
300.235
300.249
300.264
300.279
300.294
300.309
300.325
300.341
300.357
300.373
300.39
300.407
300.424
300.441
300.459
300.476
300.494
300.512
300.531
300.549
300.568
300.586
300.605
300.624
300.643
300.662
300.681
300.7
300.719
300.738
300.758
300.777
300.796
300.815
300.834
300.853
300.872
300.89
300.909
300.928
300.946
300.964
300.982
301
301.018
301.036
301.053
301.071
301.088
301.105
301.121
301.138
301.154
301.17
301.186
301.202
301.217
301.233
301.248
300.004
300.011
300.018
300.026
300.034
300.043
300.051
300.06
300.07
300.079
300.089
300.1
300.11
300.121
300.132
300.144
300.156
300.168
300.18
300.193
300.206
300.22
300.233
300.247
300.261
300.276
300.291
300.306
300.321
300.337
300.353
300.369
300.385
300.401
300.418
300.435
300.452
300.469
300.487
300.504
300.522
300.54
300.557
300.575
300.593
300.612
300.63
300.648
300.666
300.685
300.703
300.721
300.739
300.758
300.776
300.794
300.812
300.83
300.848
300.865
300.883
300.901
300.918
300.935
300.952
300.969
300.986
301.003
301.019
301.036
301.052
301.068
301.083
301.099
301.114
301.13
301.144
301.159
301.174
301.188
301.202
300.004
300.011
300.018
300.026
300.034
300.042
300.051
300.06
300.069
300.079
300.089
300.099
300.11
300.12
300.131
300.143
300.155
300.167
300.179
300.192
300.205
300.218
300.231
300.245
300.259
300.273
300.288
300.303
300.318
300.333
300.348
300.364
300.38
300.396
300.412
300.429
300.445
300.462
300.479
300.496
300.513
300.53
300.547
300.565
300.582
300.599
300.617
300.634
300.652
300.669
300.687
300.704
300.722
300.739
300.756
300.774
300.791
300.808
300.825
300.842
300.858
300.875
300.892
300.908
300.924
300.94
300.956
300.972
300.987
301.003
301.018
301.033
301.048
301.063
301.077
301.092
301.106
301.12
301.133
301.147
301.16
300.004
300.011
300.018
300.026
300.034
300.042
300.051
300.06
300.069
300.078
300.088
300.098
300.109
300.12
300.131
300.142
300.154
300.165
300.178
300.19
300.203
300.216
300.229
300.243
300.257
300.271
300.285
300.299
300.314
300.329
300.344
300.36
300.375
300.391
300.407
300.423
300.439
300.455
300.471
300.488
300.504
300.521
300.538
300.554
300.571
300.588
300.605
300.621
300.638
300.655
300.672
300.688
300.705
300.722
300.738
300.755
300.771
300.787
300.804
300.82
300.836
300.851
300.867
300.883
300.898
300.913
300.928
300.943
300.958
300.973
300.987
301.001
301.016
301.03
301.043
301.057
301.07
301.083
301.096
301.109
301.122
300.003
300.011
300.018
300.026
300.034
300.042
300.05
300.059
300.069
300.078
300.088
300.098
300.108
300.119
300.13
300.141
300.152
300.164
300.176
300.189
300.201
300.214
300.227
300.241
300.254
300.268
300.282
300.296
300.311
300.325
300.34
300.355
300.37
300.386
300.401
300.417
300.432
300.448
300.464
300.48
300.496
300.512
300.528
300.545
300.561
300.577
300.593
300.609
300.625
300.642
300.658
300.674
300.69
300.706
300.722
300.737
300.753
300.769
300.784
300.799
300.815
300.83
300.845
300.86
300.874
300.889
300.903
300.918
300.932
300.946
300.959
300.973
300.986
301
301.013
301.026
301.038
301.051
301.063
301.076
301.088
300.003
300.011
300.018
300.026
300.033
300.042
300.05
300.059
300.068
300.078
300.087
300.097
300.107
300.118
300.129
300.14
300.151
300.163
300.175
300.187
300.2
300.212
300.225
300.239
300.252
300.266
300.279
300.293
300.308
300.322
300.337
300.351
300.366
300.381
300.396
300.411
300.427
300.442
300.457
300.473
300.489
300.504
300.52
300.536
300.551
300.567
300.583
300.598
300.614
300.63
300.645
300.661
300.676
300.691
300.707
300.722
300.737
300.752
300.767
300.781
300.796
300.811
300.825
300.839
300.853
300.867
300.881
300.895
300.908
300.922
300.935
300.948
300.961
300.973
300.986
300.998
301.011
301.023
301.035
301.046
301.058
300.003
300.01
300.018
300.025
300.033
300.041
300.05
300.059
300.068
300.077
300.087
300.097
300.107
300.117
300.128
300.139
300.15
300.162
300.174
300.186
300.198
300.211
300.224
300.237
300.25
300.263
300.277
300.291
300.305
300.319
300.333
300.347
300.362
300.377
300.392
300.406
300.421
300.436
300.452
300.467
300.482
300.497
300.512
300.528
300.543
300.558
300.573
300.589
300.604
300.619
300.634
300.649
300.664
300.679
300.694
300.708
300.723
300.737
300.752
300.766
300.78
300.794
300.808
300.822
300.835
300.849
300.862
300.875
300.888
300.901
300.914
300.927
300.939
300.951
300.963
300.975
300.987
300.999
301.01
301.021
301.033
300.003
300.01
300.018
300.025
300.033
300.041
300.05
300.058
300.067
300.077
300.086
300.096
300.106
300.117
300.127
300.138
300.149
300.161
300.173
300.185
300.197
300.209
300.222
300.235
300.248
300.261
300.275
300.288
300.302
300.316
300.33
300.344
300.359
300.373
300.388
300.402
300.417
300.432
300.447
300.461
300.476
300.491
300.506
300.521
300.536
300.551
300.566
300.581
300.595
300.61
300.625
300.639
300.654
300.669
300.683
300.697
300.711
300.725
300.739
300.753
300.767
300.781
300.794
300.807
300.821
300.834
300.847
300.86
300.872
300.885
300.897
300.909
300.921
300.933
300.945
300.956
300.968
300.979
300.99
301.001
301.012
300.003
300.01
300.018
300.025
300.033
300.041
300.049
300.058
300.067
300.076
300.086
300.096
300.106
300.116
300.127
300.138
300.149
300.16
300.172
300.184
300.196
300.208
300.221
300.233
300.246
300.26
300.273
300.286
300.3
300.314
300.328
300.342
300.356
300.37
300.384
300.399
300.413
300.428
300.442
300.457
300.472
300.486
300.501
300.516
300.53
300.545
300.56
300.574
300.589
300.603
300.618
300.632
300.646
300.66
300.675
300.689
300.702
300.716
300.73
300.743
300.757
300.77
300.783
300.796
300.809
300.822
300.835
300.847
300.86
300.872
300.884
300.896
300.908
300.919
300.931
300.942
300.953
300.964
300.975
300.986
300.996
300.003
300.01
300.018
300.025
300.033
300.041
300.049
300.058
300.067
300.076
300.085
300.095
300.105
300.116
300.126
300.137
300.148
300.159
300.171
300.183
300.195
300.207
300.22
300.232
300.245
300.258
300.271
300.285
300.298
300.312
300.326
300.34
300.354
300.368
300.382
300.396
300.411
300.425
300.44
300.454
300.468
300.483
300.497
300.512
300.526
300.541
300.555
300.57
300.584
300.598
300.613
300.627
300.641
300.655
300.669
300.682
300.696
300.71
300.723
300.736
300.75
300.763
300.776
300.789
300.801
300.814
300.826
300.839
300.851
300.863
300.875
300.887
300.898
300.91
300.921
300.932
300.943
300.954
300.965
300.975
300.986
300.003
300.01
300.017
300.025
300.033
300.041
300.049
300.058
300.067
300.076
300.085
300.095
300.105
300.115
300.126
300.137
300.148
300.159
300.17
300.182
300.194
300.206
300.219
300.232
300.244
300.257
300.271
300.284
300.297
300.311
300.325
300.338
300.352
300.366
300.381
300.395
300.409
300.423
300.438
300.452
300.466
300.481
300.495
300.51
300.524
300.538
300.553
300.567
300.581
300.595
300.609
300.623
300.637
300.651
300.665
300.679
300.692
300.706
300.719
300.732
300.745
300.758
300.771
300.784
300.797
300.809
300.821
300.834
300.846
300.858
300.869
300.881
300.893
300.904
300.915
300.926
300.937
300.948
300.958
300.969
300.979
300.003
300.01
300.017
300.025
300.033
300.041
300.049
300.058
300.066
300.076
300.085
300.095
300.105
300.115
300.126
300.136
300.147
300.159
300.17
300.182
300.194
300.206
300.219
300.231
300.244
300.257
300.27
300.283
300.297
300.31
300.324
300.338
300.352
300.366
300.38
300.394
300.408
300.422
300.437
300.451
300.465
300.48
300.494
300.509
300.523
300.537
300.551
300.566
300.58
300.594
300.608
300.622
300.636
300.65
300.663
300.677
300.691
300.704
300.717
300.731
300.744
300.757
300.769
300.782
300.795
300.807
300.819
300.832
300.844
300.856
300.867
300.879
300.89
300.902
300.913
300.924
300.935
300.945
300.956
300.966
300.977
300.003
300.01
300.017
300.025
300.033
300.041
300.049
300.057
300.066
300.075
300.085
300.095
300.105
300.115
300.125
300.136
300.147
300.159
300.17
300.182
300.194
300.206
300.218
300.231
300.244
300.257
300.27
300.283
300.297
300.31
300.324
300.338
300.352
300.366
300.38
300.394
300.408
300.422
300.437
300.451
300.465
300.48
300.494
300.508
300.523
300.537
300.551
300.566
300.58
300.594
300.608
300.622
300.636
300.65
300.663
300.677
300.691
300.704
300.717
300.731
300.744
300.757
300.769
300.782
300.795
300.807
300.82
300.832
300.844
300.856
300.867
300.879
300.89
300.902
300.913
300.924
300.935
300.946
300.956
300.967
300.977
300.003
300.01
300.017
300.025
300.033
300.041
300.049
300.057
300.066
300.075
300.085
300.095
300.105
300.115
300.125
300.136
300.147
300.158
300.17
300.182
300.194
300.206
300.218
300.231
300.244
300.257
300.27
300.283
300.297
300.31
300.324
300.338
300.352
300.366
300.38
300.394
300.408
300.423
300.437
300.451
300.466
300.48
300.494
300.509
300.523
300.538
300.552
300.566
300.58
300.594
300.608
300.623
300.636
300.65
300.664
300.678
300.691
300.705
300.718
300.731
300.744
300.757
300.77
300.783
300.796
300.808
300.82
300.833
300.845
300.857
300.868
300.88
300.891
300.903
300.914
300.925
300.936
300.947
300.957
300.968
300.978
303.019
303.147
303.225
303.297
303.36
303.412
303.447
303.486
303.526
303.563
303.595
303.629
303.664
303.697
303.731
303.764
303.795
303.823
303.852
303.882
303.911
303.94
303.97
303.999
304.028
304.056
304.084
304.112
304.14
304.167
304.194
304.221
304.247
304.273
304.299
304.324
304.35
304.375
304.4
304.425
304.45
304.473
304.499
304.526
304.552
304.577
304.601
304.626
304.652
304.677
304.702
304.724
304.748
304.773
304.798
304.824
304.85
304.876
304.901
304.925
304.946
304.969
304.993
305.017
305.042
305.066
305.091
305.115
305.14
305.164
305.188
305.212
305.235
305.259
305.282
305.306
305.329
305.353
305.375
305.4
305.429
305.454
305.478
305.501
305.523
305.544
305.568
305.596
305.62
305.643
305.663
305.687
305.715
305.737
305.763
305.791
305.816
305.838
305.865
305.889
305.911
305.937
305.958
305.983
306.01
306.039
306.064
306.085
306.11
306.131
306.156
306.182
306.21
306.239
306.265
306.285
306.31
306.337
306.365
306.39
306.409
306.433
306.459
306.484
306.51
306.528
306.551
306.574
306.598
306.622
306.645
306.667
306.688
306.708
306.728
306.746
306.763
306.779
306.793
306.806
306.818
306.828
306.836
306.842
306.845
306.847
306.846
306.842
306.835
306.825
306.809
306.79
306.768
306.742
306.709
306.671
306.627
306.551
306.479
306.387
306.266
302.917
303.031
303.119
303.194
303.259
303.315
303.361
303.404
303.446
303.485
303.522
303.558
303.594
303.629
303.663
303.697
303.729
303.759
303.789
303.82
303.85
303.88
303.91
303.939
303.969
303.998
304.026
304.054
304.082
304.11
304.137
304.165
304.191
304.218
304.244
304.27
304.296
304.322
304.347
304.372
304.398
304.422
304.448
304.475
304.501
304.526
304.551
304.576
304.602
304.627
304.652
304.675
304.7
304.725
304.75
304.776
304.802
304.827
304.853
304.877
304.899
304.922
304.946
304.971
304.996
305.02
305.045
305.07
305.094
305.119
305.143
305.167
305.191
305.215
305.238
305.262
305.286
305.31
305.333
305.358
305.385
305.411
305.435
305.458
305.481
305.503
305.527
305.554
305.579
305.602
305.624
305.648
305.674
305.698
305.724
305.75
305.776
305.8
305.826
305.85
305.873
305.898
305.921
305.946
305.973
306.001
306.026
306.048
306.073
306.096
306.121
306.147
306.175
306.203
306.229
306.251
306.276
306.303
306.331
306.356
306.377
306.401
306.426
306.452
306.477
306.497
306.52
306.544
306.568
306.592
306.615
306.637
306.658
306.679
306.699
306.717
306.735
306.751
306.766
306.779
306.791
306.801
306.809
306.815
306.819
306.821
306.82
306.816
306.809
306.799
306.783
306.764
306.742
306.714
306.681
306.642
306.595
306.521
306.445
306.348
306.215
302.835
302.934
303.02
303.096
303.162
303.22
303.271
303.319
303.363
303.405
303.444
303.482
303.52
303.556
303.591
303.626
303.659
303.691
303.723
303.754
303.785
303.816
303.846
303.876
303.906
303.935
303.964
303.993
304.022
304.05
304.078
304.105
304.132
304.159
304.186
304.213
304.239
304.265
304.291
304.317
304.342