/*--------------------------------*- C++ -*----------------------------------*\
| =========                 |                                                 |
| \\      /  F ield         | OpenFOAM: The Open Source CFD Toolbox           |
|  \\    /   O peration     | Version:  2106                                  |
|   \\  /    A nd           | Website:  www.openfoam.com                      |
|    \\/     M anipulation  |                                                 |
\*---------------------------------------------------------------------------*/
FoamFile
{
    version     2.0;
    format      ascii;
    arch        "LSB;label=32;scalar=64";
    class       volVectorField;
    location    "9.8";
    object      U;
}
// * * * * * * * * * * * * * * * * * * * * * * * * * * * * * * * * * * * * * //

dimensions      [0 1 -1 0 0 0 0];

internalField   nonuniform List<vector> 
12013
(
(0.10004 -1.12484e-05 0)
(0.100206 -2.08457e-05 0)
(0.100474 -2.97787e-05 0)
(0.100821 -3.8042e-05 0)
(0.101241 -4.5826e-05 0)
(0.101726 -5.32369e-05 0)
(0.102271 -6.03419e-05 0)
(0.10287 -6.71946e-05 0)
(0.103519 -7.38358e-05 0)
(0.104214 -8.0297e-05 0)
(0.104952 -8.66033e-05 0)
(0.105728 -9.27752e-05 0)
(0.106541 -9.88286e-05 0)
(0.107388 -0.000104777 0)
(0.108266 -0.000110632 0)
(0.109173 -0.000116401 0)
(0.110107 -0.000122092 0)
(0.111065 -0.000127709 0)
(0.112047 -0.000133257 0)
(0.113049 -0.000138739 0)
(0.114072 -0.000144155 0)
(0.115112 -0.000149508 0)
(0.116168 -0.000154796 0)
(0.117239 -0.000160019 0)
(0.118324 -0.000165176 0)
(0.119421 -0.000170264 0)
(0.120528 -0.00017528 0)
(0.121645 -0.00018022 0)
(0.12277 -0.00018508 0)
(0.123902 -0.000189856 0)
(0.125039 -0.000194542 0)
(0.126181 -0.000199131 0)
(0.127327 -0.000203616 0)
(0.128474 -0.00020799 0)
(0.129623 -0.000212243 0)
(0.130771 -0.000216367 0)
(0.131919 -0.00022035 0)
(0.133064 -0.000224181 0)
(0.134205 -0.000227847 0)
(0.135342 -0.000231333 0)
(0.136473 -0.000234624 0)
(0.137598 -0.000237702 0)
(0.138714 -0.000240547 0)
(0.139821 -0.000243138 0)
(0.140917 -0.000245448 0)
(0.142002 -0.000247451 0)
(0.143074 -0.000249115 0)
(0.144132 -0.000250405 0)
(0.145173 -0.000251279 0)
(0.146198 -0.000251692 0)
(0.147203 -0.000251591 0)
(0.148188 -0.000250914 0)
(0.149151 -0.00024959 0)
(0.150089 -0.000247537 0)
(0.151001 -0.000244658 0)
(0.151884 -0.000240839 0)
(0.152735 -0.000235945 0)
(0.153552 -0.000229814 0)
(0.154331 -0.000222251 0)
(0.155069 -0.000213022 0)
(0.15576 -0.000201838 0)
(0.156401 -0.000188343 0)
(0.156985 -0.000172091 0)
(0.157505 -0.000152522 0)
(0.157953 -0.000128918 0)
(0.158319 -0.000100351 0)
(0.158591 -6.55991e-05 0)
(0.158753 -2.30314e-05 0)
(0.158786 2.95811e-05 0)
(0.158665 9.5402e-05 0)
(0.158357 0.000178969 0)
(0.15782 0.00028696 0)
(0.156991 0.000429516 0)
(0.155787 0.000622557 0)
(0.154083 0.000891954 0)
(0.151692 0.00128127 0)
(0.148326 0.00186665 0)
(0.1435 0.00278947 0)
(0.136406 0.00435642 0)
(0.125915 0.00747381 0)
(0.113866 0.0164255 0)
(0.100037 -3.43455e-05 0)
(0.100202 -6.39128e-05 0)
(0.100469 -9.13472e-05 0)
(0.100815 -0.000116707 0)
(0.101234 -0.000140597 0)
(0.101718 -0.000163339 0)
(0.102262 -0.00018514 0)
(0.10286 -0.000206165 0)
(0.103508 -0.00022654 0)
(0.104202 -0.000246361 0)
(0.104939 -0.000265706 0)
(0.105714 -0.000284637 0)
(0.106526 -0.000303205 0)
(0.107372 -0.000321449 0)
(0.108248 -0.000339405 0)
(0.109154 -0.000357097 0)
(0.110087 -0.000374547 0)
(0.111044 -0.000391771 0)
(0.112024 -0.000408781 0)
(0.113025 -0.000425586 0)
(0.114046 -0.000442192 0)
(0.115085 -0.0004586 0)
(0.116139 -0.000474809 0)
(0.117209 -0.000490819 0)
(0.118292 -0.000506624 0)
(0.119387 -0.000522217 0)
(0.120493 -0.000537588 0)
(0.121608 -0.000552727 0)
(0.122731 -0.00056762 0)
(0.123861 -0.000582253 0)
(0.124997 -0.000596607 0)
(0.126137 -0.000610665 0)
(0.12728 -0.000624404 0)
(0.128426 -0.000637799 0)
(0.129573 -0.000650825 0)
(0.130719 -0.000663453 0)
(0.131864 -0.000675649 0)
(0.133007 -0.000687378 0)
(0.134146 -0.0006986 0)
(0.135281 -0.000709271 0)
(0.136409 -0.000719343 0)
(0.137531 -0.000728762 0)
(0.138645 -0.000737466 0)
(0.13975 -0.000745389 0)
(0.140844 -0.000752454 0)
(0.141926 -0.000758578 0)
(0.142995 -0.000763663 0)
(0.14405 -0.0007676 0)
(0.145089 -0.000770267 0)
(0.146111 -0.000771522 0)
(0.147114 -0.000771201 0)
(0.148096 -0.00076912 0)
(0.149056 -0.000765062 0)
(0.149992 -0.000758774 0)
(0.150901 -0.000749963 0)
(0.151782 -0.000738282 0)
(0.152631 -0.000723318 0)
(0.153446 -0.000704582 0)
(0.154224 -0.000681484 0)
(0.15496 -0.000653309 0)
(0.155651 -0.000619184 0)
(0.156292 -0.000578033 0)
(0.156877 -0.000528513 0)
(0.1574 -0.000468937 0)
(0.157852 -0.000397148 0)
(0.158224 -0.000310368 0)
(0.158505 -0.000204955 0)
(0.15868 -7.6067e-05 0)
(0.158732 8.2852e-05 0)
(0.158639 0.000280954 0)
(0.158371 0.000531247 0)
(0.157893 0.000852609 0)
(0.157155 0.00127317 0)
(0.15609 0.00183602 0)
(0.15461 0.0026089 0)
(0.152593 0.00370101 0)
(0.149874 0.0052912 0)
(0.146226 0.0076754 0)
(0.141372 0.0113478 0)
(0.135324 0.0170453 0)
(0.130436 0.0251938 0)
(0.100034 -5.83801e-05 0)
(0.100197 -0.000109631 0)
(0.100461 -0.000156882 0)
(0.100805 -0.000200548 0)
(0.101222 -0.000241672 0)
(0.101704 -0.000280814 0)
(0.102246 -0.000318331 0)
(0.102842 -0.00035451 0)
(0.103488 -0.000389567 0)
(0.10418 -0.000423667 0)
(0.104914 -0.000456947 0)
(0.105687 -0.000489512 0)
(0.106497 -0.00052145 0)
(0.10734 -0.00055283 0)
(0.108214 -0.000583711 0)
(0.109117 -0.000614137 0)
(0.110047 -0.000644145 0)
(0.111001 -0.000673763 0)
(0.111979 -0.000703011 0)
(0.112977 -0.000731904 0)
(0.113995 -0.000760452 0)
(0.115031 -0.000788658 0)
(0.116082 -0.000816522 0)
(0.117149 -0.000844039 0)
(0.118228 -0.000871202 0)
(0.11932 -0.000897998 0)
(0.120422 -0.00092441 0)
(0.121534 -0.000950421 0)
(0.122653 -0.000976007 0)
(0.12378 -0.00100114 0)
(0.124912 -0.0010258 0)
(0.126048 -0.00104994 0)
(0.127187 -0.00107353 0)
(0.128329 -0.00109653 0)
(0.129471 -0.00111889 0)
(0.130613 -0.00114056 0)
(0.131754 -0.00116149 0)
(0.132892 -0.00118161 0)
(0.134026 -0.00120086 0)
(0.135156 -0.00121916 0)
(0.13628 -0.00123642 0)
(0.137397 -0.00125256 0)
(0.138506 -0.00126747 0)
(0.139605 -0.00128104 0)
(0.140694 -0.00129313 0)
(0.141771 -0.0013036 0)
(0.142835 -0.00131229 0)
(0.143885 -0.001319 0)
(0.144918 -0.00132353 0)
(0.145935 -0.00132564 0)
(0.146932 -0.00132506 0)
(0.147909 -0.00132145 0)
(0.148864 -0.00131446 0)
(0.149795 -0.00130366 0)
(0.150699 -0.00128856 0)
(0.151575 -0.00126855 0)
(0.15242 -0.00124295 0)
(0.153231 -0.00121094 0)
(0.154005 -0.00117152 0)
(0.154739 -0.00112349 0)
(0.155428 -0.0010654 0)
(0.156068 -0.000995467 0)
(0.156655 -0.000911458 0)
(0.157181 -0.000810596 0)
(0.157639 -0.000689358 0)
(0.158021 -0.000543231 0)
(0.158318 -0.000366352 0)
(0.158516 -0.000151014 0)
(0.158601 0.000113059 0)
(0.158555 0.000439889 0)
(0.158356 0.000848983 0)
(0.157978 0.00136786 0)
(0.157387 0.00203606 0)
(0.156545 0.00291134 0)
(0.155407 0.00407923 0)
(0.153929 0.00566728 0)
(0.152077 0.00786396 0)
(0.149857 0.0109387 0)
(0.147384 0.0152473 0)
(0.145097 0.0211072 0)
(0.144294 0.028011 0)
(0.100031 -8.31463e-05 0)
(0.100191 -0.000157877 0)
(0.100452 -0.000226313 0)
(0.100792 -0.000289592 0)
(0.101206 -0.000349163 0)
(0.101685 -0.000405845 0)
(0.102223 -0.000460164 0)
(0.102816 -0.000512537 0)
(0.103458 -0.000563278 0)
(0.104147 -0.000612631 0)
(0.104877 -0.000660789 0)
(0.105647 -0.000707909 0)
(0.106453 -0.000754116 0)
(0.107292 -0.000799513 0)
(0.108163 -0.000844183 0)
(0.109062 -0.000888191 0)
(0.109987 -0.00093159 0)
(0.110938 -0.00097442 0)
(0.111911 -0.00101671 0)
(0.112905 -0.00105849 0)
(0.113918 -0.00109976 0)
(0.114949 -0.00114053 0)
(0.115996 -0.0011808 0)
(0.117057 -0.00122057 0)
(0.118132 -0.00125982 0)
(0.119218 -0.00129853 0)
(0.120315 -0.00133668 0)
(0.121421 -0.00137425 0)
(0.122535 -0.0014112 0)
(0.123656 -0.00144749 0)
(0.124782 -0.00148308 0)
(0.125912 -0.00151793 0)
(0.127045 -0.00155197 0)
(0.12818 -0.00158515 0)
(0.129316 -0.0016174 0)
(0.130451 -0.00164865 0)
(0.131585 -0.00167882 0)
(0.132717 -0.00170781 0)
(0.133844 -0.00173554 0)
(0.134967 -0.00176189 0)
(0.136083 -0.00178674 0)
(0.137193 -0.00180996 0)
(0.138294 -0.00183139 0)
(0.139386 -0.00185088 0)
(0.140467 -0.00186824 0)
(0.141536 -0.00188325 0)
(0.142592 -0.00189568 0)
(0.143634 -0.00190527 0)
(0.14466 -0.00191172 0)
(0.145668 -0.00191467 0)
(0.146658 -0.00191374 0)
(0.147627 -0.00190848 0)
(0.148574 -0.00189835 0)
(0.149497 -0.00188277 0)
(0.150394 -0.00186102 0)
(0.151263 -0.00183227 0)
(0.152102 -0.00179556 0)
(0.152907 -0.00174971 0)
(0.153677 -0.00169337 0)
(0.154407 -0.00162485 0)
(0.155094 -0.00154215 0)
(0.155734 -0.00144281 0)
(0.156323 -0.0013238 0)
(0.156855 -0.00118136 0)
(0.157323 -0.00101077 0)
(0.157722 -0.000806043 0)
(0.158042 -0.000559512 0)
(0.158274 -0.000261257 0)
(0.158408 0.000101675 0)
(0.15843 0.000546387 0)
(0.158327 0.00109599 0)
(0.158085 0.00178186 0)
(0.157688 0.00264688 0)
(0.157124 0.00374993 0)
(0.15639 0.00517171 0)
(0.155499 0.00702101 0)
(0.154499 0.0094384 0)
(0.153507 0.0125879 0)
(0.152747 0.016613 0)
(0.152615 0.0214837 0)
(0.153682 0.0265522 0)
(0.100028 -0.000108654 0)
(0.100184 -0.000208561 0)
(0.100441 -0.000299599 0)
(0.100777 -0.000383868 0)
(0.101186 -0.000463173 0)
(0.10166 -0.000538602 0)
(0.102194 -0.000610873 0)
(0.102782 -0.000680539 0)
(0.10342 -0.000748023 0)
(0.104104 -0.000813649 0)
(0.104829 -0.000877678 0)
(0.105594 -0.000940318 0)
(0.106395 -0.00100174 0)
(0.107229 -0.00106207 0)
(0.108094 -0.00112143 0)
(0.108988 -0.0011799 0)
(0.109908 -0.00123755 0)
(0.110852 -0.00129445 0)
(0.111819 -0.00135061 0)
(0.112807 -0.00140609 0)
(0.113814 -0.00146088 0)
(0.114839 -0.00151501 0)
(0.115879 -0.00156846 0)
(0.116934 -0.00162124 0)
(0.118002 -0.00167331 0)
(0.119081 -0.00172467 0)
(0.120171 -0.00177528 0)
(0.121269 -0.0018251 0)
(0.122375 -0.00187408 0)
(0.123488 -0.00192219 0)
(0.124606 -0.00196935 0)
(0.125728 -0.00201551 0)
(0.126853 -0.0020606 0)
(0.127979 -0.00210453 0)
(0.129107 -0.00214722 0)
(0.130233 -0.00218856 0)
(0.131358 -0.00222846 0)
(0.13248 -0.0022668 0)
(0.133598 -0.00230344 0)
(0.134711 -0.00233824 0)
(0.135818 -0.00237104 0)
(0.136918 -0.00240167 0)
(0.138009 -0.00242992 0)
(0.139091 -0.00245559 0)
(0.140161 -0.00247842 0)
(0.14122 -0.00249814 0)
(0.142266 -0.00251444 0)
(0.143297 -0.00252698 0)
(0.144312 -0.00253535 0)
(0.14531 -0.00253912 0)
(0.14629 -0.00253776 0)
(0.147249 -0.0025307 0)
(0.148186 -0.00251726 0)
(0.1491 -0.00249666 0)
(0.149988 -0.00246798 0)
(0.150848 -0.00243019 0)
(0.151679 -0.00238202 0)
(0.152478 -0.00232201 0)
(0.153242 -0.00224842 0)
(0.153968 -0.00215917 0)
(0.154654 -0.00205175 0)
(0.155295 -0.00192312 0)
(0.155888 -0.00176958 0)
(0.156429 -0.00158659 0)
(0.156913 -0.00136849 0)
(0.157334 -0.00110826 0)
(0.157686 -0.000797039 0)
(0.157964 -0.000423618 0)
(0.158161 2.62773e-05 0)
(0.15827 0.000570703 0)
(0.158285 0.00123316 0)
(0.158205 0.00204407 0)
(0.158028 0.00304259 0)
(0.157763 0.00427866 0)
(0.157434 0.00581455 0)
(0.157084 0.00772455 0)
(0.156793 0.0100893 0)
(0.156693 0.0129774 0)
(0.15698 0.0163998 0)
(0.157909 0.020212 0)
(0.159711 0.023941 0)
(0.100025 -0.000134915 0)
(0.100178 -0.000261603 0)
(0.100429 -0.000376692 0)
(0.100759 -0.000483373 0)
(0.101163 -0.000583759 0)
(0.101631 -0.000679211 0)
(0.102159 -0.000770642 0)
(0.102742 -0.00085876 0)
(0.103374 -0.000944098 0)
(0.104051 -0.00102707 0)
(0.104771 -0.00110801 0)
(0.105529 -0.00118718 0)
(0.106323 -0.00126479 0)
(0.107151 -0.00134102 0)
(0.108009 -0.001416 0)
(0.108895 -0.00148985 0)
(0.109808 -0.00156266 0)
(0.110745 -0.00163449 0)
(0.111705 -0.0017054 0)
(0.112685 -0.00177541 0)
(0.113684 -0.00184456 0)
(0.1147 -0.00191284 0)
(0.115732 -0.00198027 0)
(0.116778 -0.00204683 0)
(0.117837 -0.00211249 0)
(0.118907 -0.00217723 0)
(0.119988 -0.00224101 0)
(0.121077 -0.00230377 0)
(0.122173 -0.00236548 0)
(0.123276 -0.00242605 0)
(0.124384 -0.00248542 0)
(0.125496 -0.00254351 0)
(0.12661 -0.00260023 0)
(0.127726 -0.00265547 0)
(0.128842 -0.00270913 0)
(0.129957 -0.00276108 0)
(0.131071 -0.00281119 0)
(0.132181 -0.00285931 0)
(0.133287 -0.00290527 0)
(0.134389 -0.0029489 0)
(0.135483 -0.00299 0)
(0.136571 -0.00302834 0)
(0.13765 -0.00306368 0)
(0.138719 -0.00309575 0)
(0.139777 -0.00312425 0)
(0.140823 -0.00314882 0)
(0.141856 -0.00316909 0)
(0.142874 -0.00318463 0)
(0.143877 -0.00319495 0)
(0.144862 -0.00319951 0)
(0.145829 -0.00319767 0)
(0.146776 -0.00318871 0)
(0.147701 -0.00317182 0)
(0.148604 -0.00314605 0)
(0.149481 -0.00311031 0)
(0.150332 -0.00306332 0)
(0.151154 -0.0030036 0)
(0.151945 -0.00292941 0)
(0.152704 -0.00283869 0)
(0.153427 -0.00272902 0)
(0.154112 -0.00259749 0)
(0.154756 -0.00244063 0)
(0.155357 -0.00225425 0)
(0.15591 -0.00203328 0)
(0.156414 -0.00177155 0)
(0.156864 -0.00146151 0)
(0.157257 -0.00109386 0)
(0.15759 -0.000657172 0)
(0.157862 -0.000137331 0)
(0.158071 0.00048283 0)
(0.158218 0.00122429 0)
(0.158309 0.00211287 0)
(0.158356 0.00317954 0)
(0.158379 0.00446042 0)
(0.158412 0.0059956 0)
(0.158508 0.00782563 0)
(0.158746 0.00998351 0)
(0.159232 0.0124787 0)
(0.160101 0.015268 0)
(0.161493 0.0182101 0)
(0.163488 0.0210119 0)
(0.100022 -0.000161944 0)
(0.100171 -0.00031694 0)
(0.100416 -0.000457544 0)
(0.100741 -0.000588083 0)
(0.101137 -0.000710948 0)
(0.101599 -0.00082775 0)
(0.10212 -0.00093961 0)
(0.102695 -0.00104739 0)
(0.10332 -0.00115175 0)
(0.10399 -0.00125319 0)
(0.104701 -0.00135213 0)
(0.105452 -0.00144888 0)
(0.106238 -0.00154371 0)
(0.107057 -0.00163683 0)
(0.107907 -0.00172841 0)
(0.108785 -0.00181859 0)
(0.109689 -0.00190747 0)
(0.110617 -0.00199515 0)
(0.111567 -0.00208167 0)
(0.112537 -0.00216709 0)
(0.113526 -0.00225144 0)
(0.114533 -0.00233471 0)
(0.115554 -0.00241692 0)
(0.11659 -0.00249804 0)
(0.117638 -0.00257805 0)
(0.118697 -0.00265692 0)
(0.119766 -0.00273459 0)
(0.120844 -0.00281101 0)
(0.121929 -0.0028861 0)
(0.12302 -0.0029598 0)
(0.124115 -0.00303201 0)
(0.125214 -0.00310263 0)
(0.126316 -0.00317156 0)
(0.127419 -0.00323866 0)
(0.128522 -0.00330381 0)
(0.129623 -0.00336686 0)
(0.130723 -0.00342763 0)
(0.13182 -0.00348596 0)
(0.132912 -0.00354164 0)
(0.133999 -0.00359446 0)
(0.135079 -0.00364417 0)
(0.136152 -0.00369052 0)
(0.137216 -0.00373319 0)
(0.13827 -0.00377187 0)
(0.139314 -0.0038062 0)
(0.140345 -0.00383575 0)
(0.141363 -0.00386009 0)
(0.142366 -0.0038787 0)
(0.143354 -0.003891 0)
(0.144325 -0.00389635 0)
(0.145277 -0.003894 0)
(0.14621 -0.00388312 0)
(0.147122 -0.00386276 0)
(0.148012 -0.00383182 0)
(0.148878 -0.00378904 0)
(0.149718 -0.00373297 0)
(0.150531 -0.00366192 0)
(0.151315 -0.00357395 0)
(0.152068 -0.00346675 0)
(0.152788 -0.00333765 0)
(0.153474 -0.00318348 0)
(0.154123 -0.00300052 0)
(0.154734 -0.00278434 0)
(0.155304 -0.00252967 0)
(0.155832 -0.00223024 0)
(0.156317 -0.00187856 0)
(0.156757 -0.00146567 0)
(0.157153 -0.000980915 0)
(0.157506 -0.000411631 0)
(0.157821 0.00025706 0)
(0.158102 0.00104168 0)
(0.158362 0.00196155 0)
(0.158617 0.00303791 0)
(0.158892 0.00429275 0)
(0.159222 0.00574667 0)
(0.159655 0.00741492 0)
(0.160254 0.00930086 0)
(0.161093 0.0113859 0)
(0.162251 0.0136151 0)
(0.163796 0.015881 0)
(0.165746 0.0180133 0)
(0.100018 -0.000189771 0)
(0.100165 -0.000374528 0)
(0.100404 -0.000542118 0)
(0.100721 -0.000697969 0)
(0.10111 -0.000844743 0)
(0.101564 -0.000984266 0)
(0.102076 -0.00111787 0)
(0.102643 -0.00124657 0)
(0.103259 -0.00137116 0)
(0.10392 -0.00149225 0)
(0.104623 -0.00161031 0)
(0.105364 -0.00172573 0)
(0.10614 -0.00183884 0)
(0.10695 -0.00194988 0)
(0.107789 -0.00205906 0)
(0.108657 -0.00216655 0)
(0.10955 -0.00227246 0)
(0.110467 -0.00237691 0)
(0.111406 -0.00247997 0)
(0.112365 -0.00258168 0)
(0.113343 -0.00268208 0)
(0.114337 -0.00278118 0)
(0.115347 -0.00287899 0)
(0.11637 -0.00297547 0)
(0.117405 -0.00307061 0)
(0.118451 -0.00316435 0)
(0.119507 -0.00325664 0)
(0.120571 -0.00334741 0)
(0.121642 -0.00343657 0)
(0.122719 -0.00352404 0)
(0.1238 -0.00360971 0)
(0.124884 -0.00369346 0)
(0.125971 -0.00377516 0)
(0.127059 -0.00385466 0)
(0.128146 -0.0039318 0)
(0.129232 -0.00400641 0)
(0.130316 -0.00407829 0)
(0.131397 -0.00414724 0)
(0.132473 -0.00421301 0)
(0.133543 -0.00427535 0)
(0.134606 -0.00433398 0)
(0.135662 -0.00438858 0)
(0.136709 -0.00443882 0)
(0.137747 -0.00448431 0)
(0.138773 -0.00452463 0)
(0.139787 -0.0045593 0)
(0.140788 -0.00458781 0)
(0.141775 -0.00460957 0)
(0.142746 -0.00462391 0)
(0.1437 -0.00463011 0)
(0.144637 -0.00462732 0)
(0.145555 -0.0046146 0)
(0.146452 -0.00459089 0)
(0.147328 -0.00455497 0)
(0.148181 -0.00450544 0)
(0.14901 -0.00444072 0)
(0.149813 -0.00435898 0)
(0.15059 -0.00425811 0)
(0.151338 -0.0041357 0)
(0.152057 -0.00398894 0)
(0.152745 -0.00381455 0)
(0.153402 -0.00360877 0)
(0.154025 -0.00336719 0)
(0.154615 -0.00308469 0)
(0.155171 -0.00275532 0)
(0.155694 -0.0023722 0)
(0.156186 -0.00192737 0)
(0.156647 -0.00141175 0)
(0.157084 -0.000815025 0)
(0.157502 -0.000125686 0)
(0.15791 0.00066844 0)
(0.158323 0.00157931 0)
(0.158757 0.00261912 0)
(0.159236 0.0037983 0)
(0.159793 0.00512336 0)
(0.160462 0.00659395 0)
(0.161289 0.00819877 0)
(0.162317 0.00991049 0)
(0.163592 0.0116804 0)
(0.165139 0.0134346 0)
(0.166955 0.0150765 0)
(0.100015 -0.000218439 0)
(0.100158 -0.000434347 0)
(0.100391 -0.000630387 0)
(0.1007 -0.000813003 0)
(0.101081 -0.00098513 0)
(0.101526 -0.00114878 0)
(0.102029 -0.00130547 0)
(0.102586 -0.0014564 0)
(0.103192 -0.00160248 0)
(0.103843 -0.00174441 0)
(0.104535 -0.00188276 0)
(0.105266 -0.00201799 0)
(0.106031 -0.00215047 0)
(0.106829 -0.0022805 0)
(0.107657 -0.00240831 0)
(0.108512 -0.00253411 0)
(0.109393 -0.00265803 0)
(0.110298 -0.00278021 0)
(0.111224 -0.00290071 0)
(0.11217 -0.00301962 0)
(0.113134 -0.00313695 0)
(0.114114 -0.00325273 0)
(0.115109 -0.00336696 0)
(0.116118 -0.00347961 0)
(0.117139 -0.00359064 0)
(0.11817 -0.00370001 0)
(0.119211 -0.00380764 0)
(0.120259 -0.00391345 0)
(0.121314 -0.00401736 0)
(0.122374 -0.00411924 0)
(0.123439 -0.00421898 0)
(0.124507 -0.00431643 0)
(0.125576 -0.00441145 0)
(0.126646 -0.00450386 0)
(0.127716 -0.00459348 0)
(0.128784 -0.00468011 0)
(0.12985 -0.00476352 0)
(0.130912 -0.00484346 0)
(0.13197 -0.00491966 0)
(0.133021 -0.00499184 0)
(0.134066 -0.00505967 0)
(0.135103 -0.00512279 0)
(0.136131 -0.00518081 0)
(0.137149 -0.0052333 0)
(0.138156 -0.00527978 0)
(0.139152 -0.00531972 0)
(0.140134 -0.00535253 0)
(0.141102 -0.00537756 0)
(0.142055 -0.00539408 0)
(0.142991 -0.00540127 0)
(0.143911 -0.00539822 0)
(0.144812 -0.0053839 0)
(0.145694 -0.00535716 0)
(0.146555 -0.00531668 0)
(0.147395 -0.005261 0)
(0.148213 -0.00518844 0)
(0.149007 -0.0050971 0)
(0.149776 -0.00498483 0)
(0.150521 -0.00484916 0)
(0.151239 -0.0046873 0)
(0.151931 -0.00449607 0)
(0.152596 -0.00427183 0)
(0.153234 -0.00401047 0)
(0.153846 -0.00370734 0)
(0.154433 -0.00335718 0)
(0.154996 -0.00295412 0)
(0.155538 -0.00249169 0)
(0.156064 -0.00196283 0)
(0.156579 -0.00136 0)
(0.157092 -0.000675359 0)
(0.157613 9.90849e-05 0)
(0.158154 0.000969502 0)
(0.158732 0.00194047 0)
(0.159367 0.00301433 0)
(0.160083 0.00418908 0)
(0.160904 0.00545659 0)
(0.16186 0.00680059 0)
(0.162975 0.00819475 0)
(0.164269 0.00960144 0)
(0.165751 0.0109723 0)
(0.167412 0.0122528 0)
(0.100011 -0.000247992 0)
(0.100152 -0.000496387 0)
(0.100378 -0.000722335 0)
(0.100679 -0.000933161 0)
(0.101051 -0.00113209 0)
(0.101486 -0.00132128 0)
(0.101979 -0.00150245 0)
(0.102526 -0.00167693 0)
(0.10312 -0.00184577 0)
(0.10376 -0.00200978 0)
(0.10444 -0.00216963 0)
(0.105158 -0.00232582 0)
(0.105911 -0.0024788 0)
(0.106695 -0.0026289 0)
(0.10751 -0.00277641 0)
(0.108352 -0.00292153 0)
(0.109219 -0.00306446 0)
(0.110109 -0.00320533 0)
(0.11102 -0.00334423 0)
(0.111951 -0.00348124 0)
(0.1129 -0.00361639 0)
(0.113864 -0.0037497 0)
(0.114844 -0.00388118 0)
(0.115836 -0.00401079 0)
(0.11684 -0.0041385 0)
(0.117854 -0.00426424 0)
(0.118877 -0.00438793 0)
(0.119908 -0.00450947 0)
(0.120945 -0.00462877 0)
(0.121987 -0.00474569 0)
(0.123033 -0.00486009 0)
(0.124081 -0.00497182 0)
(0.125132 -0.00508069 0)
(0.126182 -0.00518651 0)
(0.127233 -0.00528907 0)
(0.128281 -0.00538815 0)
(0.129326 -0.00548347 0)
(0.130368 -0.00557478 0)
(0.131405 -0.00566175 0)
(0.132436 -0.00574407 0)
(0.13346 -0.00582137 0)
(0.134476 -0.00589325 0)
(0.135483 -0.00595927 0)
(0.13648 -0.00601896 0)
(0.137466 -0.00607179 0)
(0.138441 -0.00611717 0)
(0.139402 -0.00615447 0)
(0.14035 -0.00618296 0)
(0.141284 -0.00620188 0)
(0.142201 -0.00621033 0)
(0.143102 -0.00620735 0)
(0.143986 -0.00619186 0)
(0.144851 -0.00616264 0)
(0.145698 -0.00611834 0)
(0.146524 -0.00605746 0)
(0.14733 -0.0059783 0)
(0.148115 -0.00587896 0)
(0.148878 -0.00575734 0)
(0.149619 -0.00561105 0)
(0.150338 -0.00543745 0)
(0.151034 -0.00523359 0)
(0.151709 -0.00499619 0)
(0.152363 -0.00472164 0)
(0.152998 -0.00440598 0)
(0.153614 -0.00404492 0)
(0.154216 -0.00363387 0)
(0.154807 -0.00316802 0)
(0.155392 -0.00264248 0)
(0.155977 -0.00205245 0)
(0.156571 -0.0013935 0)
(0.157183 -0.000661758 0)
(0.157826 0.000145866 0)
(0.158512 0.00102886 0)
(0.159256 0.00198392 0)
(0.160074 0.00300496 0)
(0.160984 0.0040813 0)
(0.162 0.00519686 0)
(0.163136 0.00632993 0)
(0.164401 0.00745345 0)
(0.165793 0.00853652 0)
(0.167301 0.00954781 0)
(0.100008 -0.000278477 0)
(0.100145 -0.000560648 0)
(0.100365 -0.000817946 0)
(0.100658 -0.00105841 0)
(0.10102 -0.00128558 0)
(0.101445 -0.00150175 0)
(0.101927 -0.00170877 0)
(0.102461 -0.00190815 0)
(0.103044 -0.00210106 0)
(0.10367 -0.00228842 0)
(0.104337 -0.00247098 0)
(0.105041 -0.00264932 0)
(0.10578 -0.00282394 0)
(0.10655 -0.00299522 0)
(0.10735 -0.00316349 0)
(0.108176 -0.00332899 0)
(0.109028 -0.00349193 0)
(0.109902 -0.00365247 0)
(0.110796 -0.00381071 0)
(0.11171 -0.00396673 0)
(0.112642 -0.00412059 0)
(0.113589 -0.0042723 0)
(0.11455 -0.00442186 0)
(0.115524 -0.00456923 0)
(0.116509 -0.00471438 0)
(0.117504 -0.00485722 0)
(0.118508 -0.00499767 0)
(0.119519 -0.00513563 0)
(0.120536 -0.00527096 0)
(0.121557 -0.00540353 0)
(0.122583 -0.00553317 0)
(0.12361 -0.0056597 0)
(0.124639 -0.00578293 0)
(0.125668 -0.00590264 0)
(0.126697 -0.00601859 0)
(0.127723 -0.00613052 0)
(0.128746 -0.00623815 0)
(0.129765 -0.00634116 0)
(0.130779 -0.00643923 0)
(0.131788 -0.00653197 0)
(0.132789 -0.00661901 0)
(0.133782 -0.00669989 0)
(0.134766 -0.00677415 0)
(0.135741 -0.00684126 0)
(0.136705 -0.00690066 0)
(0.137657 -0.00695171 0)
(0.138597 -0.00699374 0)
(0.139523 -0.007026 0)
(0.140435 -0.00704765 0)
(0.141333 -0.00705778 0)
(0.142215 -0.0070554 0)
(0.14308 -0.00703938 0)
(0.143929 -0.00700852 0)
(0.144759 -0.00696146 0)
(0.145572 -0.00689671 0)
(0.146367 -0.00681263 0)
(0.147142 -0.00670741 0)
(0.147899 -0.00657906 0)
(0.148637 -0.00642542 0)
(0.149356 -0.00624409 0)
(0.150058 -0.00603251 0)
(0.150743 -0.0057879 0)
(0.151412 -0.00550729 0)
(0.152068 -0.00518759 0)
(0.152713 -0.00482556 0)
(0.15335 -0.00441798 0)
(0.153984 -0.0039617 0)
(0.15462 -0.00345383 0)
(0.155263 -0.00289192 0)
(0.155921 -0.00227425 0)
(0.156603 -0.00160005 0)
(0.157318 -0.000869745 0)
(0.158076 -8.48249e-05 0)
(0.158889 0.000749987 0)
(0.159766 0.00162515 0)
(0.160716 0.00253034 0)
(0.161748 0.00345197 0)
(0.162868 0.00437368 0)
(0.164077 0.00527679 0)
(0.165372 0.00614166 0)
(0.166743 0.00695007 0)
(0.100004 -0.000309931 0)
(0.100139 -0.000627129 0)
(0.100352 -0.000917199 0)
(0.100636 -0.00118872 0)
(0.100988 -0.00144556 0)
(0.101402 -0.00169012 0)
(0.101872 -0.00192438 0)
(0.102394 -0.00215002 0)
(0.102963 -0.00236831 0)
(0.103575 -0.00258029 0)
(0.104228 -0.00278679 0)
(0.104917 -0.00298847 0)
(0.10564 -0.00318588 0)
(0.106394 -0.00337947 0)
(0.107177 -0.00356958 0)
(0.107986 -0.00375651 0)
(0.10882 -0.00394048 0)
(0.109676 -0.00412166 0)
(0.110553 -0.00430019 0)
(0.111448 -0.00447615 0)
(0.11236 -0.0046496 0)
(0.113288 -0.00482056 0)
(0.114229 -0.00498901 0)
(0.115183 -0.00515494 0)
(0.116147 -0.00531827 0)
(0.117121 -0.00547895 0)
(0.118104 -0.00563685 0)
(0.119093 -0.00579187 0)
(0.120088 -0.00594386 0)
(0.121087 -0.00609266 0)
(0.122089 -0.0062381 0)
(0.123094 -0.00637996 0)
(0.124099 -0.00651804 0)
(0.125105 -0.00665209 0)
(0.126109 -0.00678185 0)
(0.127112 -0.00690702 0)
(0.128111 -0.00702731 0)
(0.129105 -0.00714237 0)
(0.130095 -0.00725183 0)
(0.131079 -0.00735529 0)
(0.132055 -0.00745234 0)
(0.133024 -0.00754249 0)
(0.133984 -0.00762523 0)
(0.134934 -0.00770003 0)
(0.135874 -0.00776627 0)
(0.136802 -0.0078233 0)
(0.137719 -0.00787041 0)
(0.138623 -0.00790682 0)
(0.139513 -0.00793169 0)
(0.140389 -0.0079441 0)
(0.141251 -0.00794304 0)
(0.142098 -0.00792742 0)
(0.142929 -0.00789604 0)
(0.143744 -0.00784761 0)
(0.144542 -0.00778071 0)
(0.145325 -0.00769382 0)
(0.146091 -0.0075853 0)
(0.146842 -0.00745336 0)
(0.147576 -0.00729612 0)
(0.148296 -0.00711157 0)
(0.149003 -0.0068976 0)
(0.149696 -0.00665202 0)
(0.15038 -0.00637261 0)
(0.151054 -0.00605714 0)
(0.151724 -0.00570347 0)
(0.152391 -0.00530964 0)
(0.15306 -0.00487396 0)
(0.153735 -0.00439517 0)
(0.154422 -0.00387266 0)
(0.155128 -0.00330659 0)
(0.155857 -0.00269814 0)
(0.156619 -0.00204973 0)
(0.157419 -0.00136506 0)
(0.158266 -0.000649062 0)
(0.159165 9.26532e-05 0)
(0.160124 0.000850269 0)
(0.161143 0.00161092 0)
(0.162224 0.00236284 0)
(0.163367 0.00309348 0)
(0.164567 0.00379053 0)
(0.165817 0.00444341 0)
(0.0999994 -0.000342382 0)
(0.100132 -0.000695824 0)
(0.100339 -0.00102006 0)
(0.100614 -0.00132404 0)
(0.100956 -0.00161195 0)
(0.101358 -0.0018863 0)
(0.101815 -0.00214919 0)
(0.102323 -0.00240242 0)
(0.102878 -0.00264741 0)
(0.103475 -0.00288529 0)
(0.104112 -0.00311696 0)
(0.104784 -0.00334318 0)
(0.10549 -0.00356454 0)
(0.106227 -0.00378154 0)
(0.106992 -0.00399458 0)
(0.107783 -0.00420398 0)
(0.108597 -0.00440999 0)
(0.109434 -0.0046128 0)
(0.11029 -0.00481256 0)
(0.111165 -0.00500936 0)
(0.112056 -0.00520327 0)
(0.112962 -0.00539431 0)
(0.113882 -0.00558247 0)
(0.114813 -0.00576772 0)
(0.115755 -0.00594998 0)
(0.116706 -0.00612919 0)
(0.117665 -0.00630521 0)
(0.11863 -0.00647792 0)
(0.119601 -0.00664717 0)
(0.120576 -0.00681277 0)
(0.121554 -0.00697453 0)
(0.122533 -0.00713222 0)
(0.123513 -0.00728561 0)
(0.124493 -0.00743443 0)
(0.125472 -0.0075784 0)
(0.126448 -0.00771719 0)
(0.127421 -0.00785048 0)
(0.12839 -0.00797791 0)
(0.129353 -0.00809907 0)
(0.13031 -0.00821355 0)
(0.13126 -0.00832088 0)
(0.132203 -0.00842058 0)
(0.133137 -0.00851211 0)
(0.134061 -0.0085949 0)
(0.134976 -0.00866833 0)
(0.135879 -0.00873173 0)
(0.136771 -0.00878437 0)
(0.137651 -0.00882549 0)
(0.138519 -0.00885424 0)
(0.139373 -0.00886972 0)
(0.140214 -0.00887095 0)
(0.141041 -0.00885688 0)
(0.141854 -0.00882641 0)
(0.142653 -0.00877833 0)
(0.143437 -0.00871136 0)
(0.144208 -0.00862415 0)
(0.144964 -0.00851527 0)
(0.145708 -0.00838323 0)
(0.146439 -0.00822649 0)
(0.147158 -0.00804345 0)
(0.147867 -0.00783254 0)
(0.148568 -0.00759218 0)
(0.149262 -0.00732087 0)
(0.149952 -0.00701724 0)
(0.15064 -0.0066801 0)
(0.151329 -0.00630855 0)
(0.152024 -0.00590208 0)
(0.152728 -0.00546067 0)
(0.153445 -0.0049849 0)
(0.154181 -0.00447611 0)
(0.154939 -0.00393651 0)
(0.155725 -0.00336927 0)
(0.156544 -0.0027786 0)
(0.157399 -0.00216979 0)
(0.158295 -0.00154903 0)
(0.159235 -0.000923085 0)
(0.16022 -0.000297995 0)
(0.161249 0.000317165 0)
(0.162322 0.000913324 0)
(0.163432 0.00148111 0)
(0.164573 0.00201396 0)
(0.0999949 -0.000375842 0)
(0.100125 -0.000766712 0)
(0.100326 -0.00112646 0)
(0.100592 -0.00146427 0)
(0.100923 -0.00178463 0)
(0.101313 -0.00209014 0)
(0.101757 -0.00238302 0)
(0.10225 -0.00266519 0)
(0.102789 -0.00293817 0)
(0.10337 -0.00320319 0)
(0.10399 -0.00346127 0)
(0.104645 -0.0037132 0)
(0.105332 -0.00395966 0)
(0.10605 -0.00420119 0)
(0.106795 -0.00443823 0)
(0.107565 -0.00467113 0)
(0.108359 -0.00490017 0)
(0.109175 -0.00512557 0)
(0.110009 -0.00534749 0)
(0.110862 -0.00556602 0)
(0.11173 -0.00578125 0)
(0.112613 -0.00599319 0)
(0.113509 -0.00620183 0)
(0.114416 -0.00640714 0)
(0.115333 -0.00660905 0)
(0.116259 -0.00680746 0)
(0.117192 -0.00700224 0)
(0.118132 -0.00719325 0)
(0.119077 -0.00738032 0)
(0.120025 -0.00756325 0)
(0.120976 -0.00774183 0)
(0.121928 -0.00791582 0)
(0.122881 -0.00808495 0)
(0.123834 -0.00824895 0)
(0.124785 -0.0084075 0)
(0.125733 -0.00856027 0)
(0.126678 -0.00870691 0)
(0.127618 -0.00884702 0)
(0.128554 -0.00898019 0)
(0.129483 -0.00910598 0)
(0.130405 -0.00922392 0)
(0.13132 -0.00933349 0)
(0.132227 -0.00943415 0)
(0.133124 -0.00952532 0)
(0.134012 -0.00960636 0)
(0.134889 -0.00967663 0)
(0.135756 -0.0097354 0)
(0.136611 -0.00978191 0)
(0.137455 -0.00981537 0)
(0.138286 -0.0098349 0)
(0.139105 -0.00983962 0)
(0.139912 -0.00982854 0)
(0.140706 -0.00980067 0)
(0.141488 -0.00975494 0)
(0.142257 -0.00969026 0)
(0.143015 -0.00960549 0)
(0.143761 -0.00949946 0)
(0.144497 -0.00937101 0)
(0.145223 -0.00921896 0)
(0.14594 -0.00904218 0)
(0.14665 -0.00883959 0)
(0.147354 -0.0086102 0)
(0.148055 -0.00835319 0)
(0.148754 -0.0080679 0)
(0.149454 -0.00775394 0)
(0.150158 -0.00741124 0)
(0.150869 -0.00704011 0)
(0.151589 -0.00664133 0)
(0.152323 -0.00621623 0)
(0.153074 -0.00576673 0)
(0.153844 -0.0052954 0)
(0.154638 -0.0048055 0)
(0.155457 -0.00430098 0)
(0.156304 -0.00378642 0)
(0.157181 -0.00326698 0)
(0.158088 -0.00274831 0)
(0.159026 -0.00223627 0)
(0.159994 -0.00173656 0)
(0.16099 -0.00125442 0)
(0.162012 -0.000793627 0)
(0.163054 -0.000358003 0)
(0.09999 -0.00041031 0)
(0.100118 -0.000839753 0)
(0.100313 -0.00123631 0)
(0.10057 -0.00160928 0)
(0.100889 -0.00196342 0)
(0.101266 -0.00230144 0)
(0.101696 -0.00262564 0)
(0.102174 -0.00293803 0)
(0.102697 -0.00324026 0)
(0.10326 -0.00353368 0)
(0.103861 -0.00381935 0)
(0.104497 -0.00409816 0)
(0.105165 -0.00437084 0)
(0.105862 -0.00463798 0)
(0.106586 -0.00490006 0)
(0.107335 -0.00515748 0)
(0.108106 -0.00541053 0)
(0.108898 -0.00565945 0)
(0.109709 -0.00590441 0)
(0.110538 -0.00614554 0)
(0.111381 -0.0063829 0)
(0.112239 -0.00661652 0)
(0.113109 -0.0068464 0)
(0.11399 -0.00707249 0)
(0.114881 -0.00729471 0)
(0.11578 -0.00751296 0)
(0.116686 -0.0077271 0)
(0.117598 -0.00793698 0)
(0.118514 -0.0081424 0)
(0.119434 -0.00834316 0)
(0.120356 -0.00853903 0)
(0.12128 -0.00872975 0)
(0.122203 -0.00891504 0)
(0.123126 -0.0090946 0)
(0.124048 -0.0092681 0)