/*--------------------------------*- C++ -*----------------------------------*\
| =========                 |                                                 |
| \\      /  F ield         | OpenFOAM: The Open Source CFD Toolbox           |
|  \\    /   O peration     | Version:  2106                                  |
|   \\  /    A nd           | Website:  www.openfoam.com                      |
|    \\/     M anipulation  |                                                 |
\*---------------------------------------------------------------------------*/
FoamFile
{
    version     2.0;
    format      ascii;
    arch        "LSB;label=32;scalar=64";
    class       surfaceScalarField;
    location    "6.2";
    object      phi;
}
// * * * * * * * * * * * * * * * * * * * * * * * * * * * * * * * * * * * * * //

dimensions      [1 0 -1 0 0 0 0];

oriented        oriented;

internalField   nonuniform List<scalar> 
23692
(
9.31796e-05
-1.00132e-07
9.33607e-05
-1.81111e-07
9.36139e-05
-2.53174e-07
9.39305e-05
-3.16592e-07
9.4304e-05
-3.73379e-07
9.47288e-05
-4.24754e-07
9.52004e-05
-4.71536e-07
9.57149e-05
-5.14375e-07
9.62687e-05
-5.53771e-07
9.6859e-05
-5.90126e-07
9.74829e-05
-6.23763e-07
9.81379e-05
-6.54954e-07
9.8822e-05
-6.83918e-07
9.9533e-05
-7.10847e-07
0.000100269
-7.35895e-07
0.000101028
-7.59198e-07
0.000101809
-7.80869e-07
0.000102611
-8.01006e-07
0.00010343
-8.19693e-07
0.000104268
-8.37002e-07
0.000105121
-8.52995e-07
0.000105989
-8.67724e-07
0.00010687
-8.81237e-07
0.000107764
-8.93573e-07
0.000108669
-9.04768e-07
0.000109584
-9.14849e-07
0.000110508
-9.23844e-07
0.00011144
-9.31773e-07
0.000112379
-9.38657e-07
0.000113323
-9.44508e-07
0.000114273
-9.49343e-07
0.000115226
-9.53168e-07
0.000116182
-9.55993e-07
0.00011714
-9.57821e-07
0.000118099
-9.58657e-07
0.000119058
-9.58499e-07
0.000120015
-9.57346e-07
0.000120971
-9.55191e-07
0.000121923
-9.52025e-07
0.000122871
-9.47839e-07
0.000123814
-9.42615e-07
0.00012475
-9.36335e-07
0.000125679
-9.28976e-07
0.0001266
-9.20507e-07
0.000127511
-9.10895e-07
0.000128411
-9.00097e-07
0.000129299
-8.88067e-07
0.000130174
-8.74744e-07
0.000131034
-8.60061e-07
0.000131878
-8.43939e-07
0.000132705
-8.26283e-07
0.000133512
-8.06981e-07
0.000134298
-7.85903e-07
0.000135061
-7.62893e-07
0.000135799
-7.37766e-07
0.000136509
-7.10306e-07
0.000137189
-6.80246e-07
0.000137837
-6.47275e-07
0.000138448
-6.11008e-07
0.000139019
-5.70982e-07
0.000139546
-5.26628e-07
0.000140023
-4.77239e-07
0.000140445
-4.21939e-07
0.000140804
-3.59617e-07
0.000141093
-2.88861e-07
0.000141301
-2.07848e-07
0.000141415
-1.14189e-07
0.00014142
-4.78428e-09
0.000141295
1.24837e-07
0.000141015
2.80577e-07
0.000140544
4.71075e-07
0.000139835
7.08797e-07
0.000138823
1.0124e-06
0.000137412
1.41057e-06
0.000135463
1.94883e-06
0.000132762
2.70137e-06
0.00012897
3.79209e-06
0.000123536
5.43387e-06
0.000115516
8.01971e-06
0.000103158
1.23577e-05
2.0772e-05
8.23865e-05
9.97035e-05
-2.04612e-07
9.98962e-05
-3.73811e-07
0.000100166
-5.23207e-07
0.000100504
-6.54451e-07
0.000100903
-7.72008e-07
0.000101357
-8.78358e-07
0.00010186
-9.75184e-07
0.00010241
-1.06384e-06
0.000103002
-1.14537e-06
0.000103632
-1.22059e-06
0.000104299
-1.29019e-06
0.000104999
-1.35472e-06
0.000105729
-1.41464e-06
0.000106489
-1.47035e-06
0.000107275
-1.52216e-06
0.000108087
-1.57036e-06
0.000108921
-1.61518e-06
0.000109777
-1.65682e-06
0.000110653
-1.69546e-06
0.000111548
-1.73124e-06
0.000112459
-1.7643e-06
0.000113386
-1.79475e-06
0.000114328
-1.82267e-06
0.000115283
-1.84816e-06
0.000116249
-1.87128e-06
0.000117227
-1.8921e-06
0.000118214
-1.91067e-06
0.000119209
-1.92703e-06
0.000120212
-1.94123e-06
0.000121221
-1.95329e-06
0.000122235
-1.96324e-06
0.000123253
-1.97111e-06
0.000124274
-1.9769e-06
0.000125297
-1.98063e-06
0.000126321
-1.98231e-06
0.000127345
-1.98193e-06
0.000128367
-1.97948e-06
0.000129387
-1.97497e-06
0.000130404
-1.96837e-06
0.000131416
-1.95965e-06
0.000132422
-1.94878e-06
0.000133422
-1.93574e-06
0.000134413
-1.92046e-06
0.000135396
-1.90288e-06
0.000136368
-1.88295e-06
0.000137328
-1.86057e-06
0.000138276
-1.83563e-06
0.00013921
-1.80803e-06
0.000140127
-1.77763e-06
0.000141028
-1.74426e-06
0.000141909
-1.70772e-06
0.00014277
-1.6678e-06
0.000143609
-1.62422e-06
0.000144422
-1.57666e-06
0.00014521
-1.52476e-06
0.000145967
-1.46807e-06
0.000146693
-1.40605e-06
0.000147384
-1.33807e-06
0.000148037
-1.26335e-06
0.000148647
-1.18097e-06
0.00014921
-1.08976e-06
0.000149721
-9.88333e-07
0.000150174
-8.74918e-07
0.000150562
-7.47316e-07
0.000150876
-6.02733e-07
0.000151105
-4.37583e-07
0.000151238
-2.47214e-07
0.000151259
-2.5513e-08
0.000151148
2.35789e-07
0.000150881
5.4798e-07
0.000150425
9.26887e-07
0.000149739
1.39498e-06
0.000148766
1.98485e-06
0.000147432
2.74477e-06
0.000145633
3.74758e-06
0.00014323
5.10457e-06
0.000140037
6.98574e-06
0.000135824
9.6467e-06
0.000130379
1.34647e-05
0.000123833
1.89031e-05
2.57848e-05
0.00011882
0.000106683
-3.12812e-07
0.000106887
-5.77836e-07
0.000107174
-8.09886e-07
0.000107534
-1.01386e-06
0.000107958
-1.19649e-06
0.000108441
-1.36166e-06
0.000108978
-1.51202e-06
0.000109564
-1.64966e-06
0.000110195
-1.77622e-06
0.000110868
-1.89298e-06
0.000111579
-2.001e-06
0.000112325
-2.10114e-06
0.000113105
-2.19411e-06
0.000113915
-2.28053e-06
0.000114754
-2.3609e-06
0.00011562
-2.43565e-06
0.00011651
-2.50515e-06
0.000117423
-2.56971e-06
0.000118357
-2.6296e-06
0.000119311
-2.68506e-06
0.000120283
-2.73629e-06
0.000121272
-2.78344e-06
0.000122277
-2.82669e-06
0.000123295
-2.86614e-06
0.000124326
-2.90193e-06
0.000125368
-2.93413e-06
0.00012642
-2.96283e-06
0.000127482
-2.98811e-06
0.000128551
-3.01001e-06
0.000129626
-3.0286e-06
0.000130707
-3.04392e-06
0.000131792
-3.05599e-06
0.00013288
-3.06485e-06
0.00013397
-3.0705e-06
0.000135061
-3.07295e-06
0.000136152
-3.07222e-06
0.000137241
-3.06828e-06
0.000138327
-3.06113e-06
0.000139409
-3.05073e-06
0.000140487
-3.03705e-06
0.000141558
-3.02005e-06
0.000142623
-2.99966e-06
0.000143678
-2.9758e-06
0.000144724
-2.9484e-06
0.000145758
-2.91733e-06
0.00014678
-2.88247e-06
0.000147788
-2.84367e-06
0.000148781
-2.80075e-06
0.000149757
-2.75349e-06
0.000150715
-2.70165e-06
0.000151652
-2.64493e-06
0.000152567
-2.58299e-06
0.000153459
-2.51543e-06
0.000154324
-2.44176e-06
0.000155161
-2.36141e-06
0.000155966
-2.27373e-06
0.000156738
-2.17791e-06
0.000157473
-2.07299e-06
0.000158168
-1.95782e-06
0.000158818
-1.831e-06
0.000159419
-1.69085e-06
0.000159966
-1.53527e-06
0.000160453
-1.3617e-06
0.000160873
-1.16694e-06
0.000161217
-9.46935e-07
0.000161476
-6.96574e-07
0.000161638
-4.09273e-07
0.000161689
-7.64953e-08
0.000161612
3.12962e-07
0.000161386
7.74131e-07
0.000160985
1.32748e-06
0.000160379
2.00108e-06
0.00015953
2.83391e-06
0.000158394
3.88052e-06
0.000156924
5.21761e-06
0.000155077
6.95206e-06
0.000152834
9.22822e-06
0.000150254
1.22266e-05
0.000147588
1.61309e-05
0.00014553
2.09617e-05
2.59904e-05
0.000145324
0.000114151
-4.24447e-07
0.000114366
-7.92648e-07
0.000114669
-1.11302e-06
0.000115051
-1.39494e-06
0.000115501
-1.64726e-06
0.000116015
-1.87536e-06
0.000116586
-2.08296e-06
0.00011721
-2.27296e-06
0.000117881
-2.44763e-06
0.000118597
-2.60875e-06
0.000119354
-2.75777e-06
0.000120149
-2.8959e-06
0.000120979
-3.02412e-06
0.000121842
-3.14328e-06
0.000122735
-3.25407e-06
0.000123657
-3.35709e-06
0.000124605
-3.45286e-06
0.000125577
-3.5418e-06
0.000126572
-3.62429e-06
0.000127588
-3.70065e-06
0.000128623
-3.77115e-06
0.000129676
-3.83604e-06
0.000130745
-3.89551e-06
0.000131829
-3.94974e-06
0.000132926
-3.9989e-06
0.000134035
-4.04311e-06
0.000135155
-4.08248e-06
0.000136284
-4.11712e-06
0.000137422
-4.1471e-06
0.000138566
-4.1725e-06
0.000139715
-4.19337e-06
0.000140869
-4.20976e-06
0.000142026
-4.22171e-06
0.000143185
-4.22923e-06
0.000144345
-4.23235e-06
0.000145504
-4.23105e-06
0.000146661
-4.22534e-06
0.000147816
-4.21518e-06
0.000148966
-4.20055e-06
0.00015011
-4.1814e-06
0.000151248
-4.15766e-06
0.000152378
-4.12926e-06
0.000153498
-4.09608e-06
0.000154608
-4.05802e-06
0.000155706
-4.01492e-06
0.00015679
-3.96661e-06
0.000157859
-3.91289e-06
0.000158912
-3.85351e-06
0.000159947
-3.78819e-06
0.000160962
-3.7166e-06
0.000161956
-3.63834e-06
0.000162926
-3.55296e-06
0.00016387
-3.45992e-06
0.000164787
-3.35857e-06
0.000165674
-3.24818e-06
0.000166528
-3.12785e-06
0.000167347
-2.99653e-06
0.000168127
-2.85297e-06
0.000168865
-2.69567e-06
0.000169557
-2.52282e-06
0.000170198
-2.33223e-06
0.000170784
-2.12125e-06
0.000171309
-1.88661e-06
0.000171767
-1.62428e-06
0.000172149
-1.32927e-06
0.000172448
-9.95297e-07
0.000172653
-6.14435e-07
0.000172753
-1.76616e-07
0.000172735
3.30992e-07
0.000172584
9.25006e-07
0.000172284
1.62729e-06
0.000171819
2.4665e-06
0.000171173
3.4802e-06
0.000170336
4.71742e-06
0.000169312
6.24113e-06
0.000168135
8.12942e-06
0.000166892
1.04717e-05
0.000165766
1.33517e-05
0.000165099
1.67987e-05
0.000165397
2.06629e-05
2.43532e-05
0.000167035
0.000122142
-5.39382e-07
0.000122367
-1.01781e-06
0.000122687
-1.43235e-06
0.00012309
-1.79767e-06
0.000123567
-2.12455e-06
0.000124112
-2.41995e-06
0.000124718
-2.68874e-06
0.000125379
-2.93467e-06
0.000126093
-3.1607e-06
0.000126853
-3.36915e-06
0.000127657
-3.5619e-06
0.000128502
-3.74052e-06
0.000129385
-3.90629e-06
0.000130302
-4.0603e-06
0.000131251
-4.20346e-06
0.000132231
-4.33655e-06
0.000133239
-4.46022e-06
0.000134272
-4.57504e-06
0.000135329
-4.6815e-06
0.000136409
-4.78e-06
0.000137509
-4.8709e-06
0.000138628
-4.95453e-06
0.000139764
-5.03113e-06
0.000140915
-5.10094e-06
0.000142081
-5.16417e-06
0.000143259
-5.22099e-06
0.000144448
-5.27153e-06
0.000145647
-5.31594e-06
0.000146854
-5.35432e-06
0.000148069
-5.38675e-06
0.000149289
-5.41332e-06
0.000150514
-5.43408e-06
0.000151741
-5.44909e-06
0.000152971
-5.45836e-06
0.0001542
-5.46193e-06
0.000155429
-5.45979e-06
0.000156656
-5.45193e-06
0.00015788
-5.43833e-06
0.000159098
-5.41894e-06
0.000160311
-5.39371e-06
0.000161516
-5.36256e-06
0.000162712
-5.32538e-06
0.000163898
-5.28205e-06
0.000165073
-5.23241e-06
0.000166234
-5.1763e-06
0.000167381
-5.11349e-06
0.000168512
-5.04371e-06
0.000169626
-4.96669e-06
0.00017072
-4.88206e-06
0.000171793
-4.7894e-06
0.000172843
-4.68823e-06
0.000173868
-4.57799e-06
0.000174866
-4.45802e-06
0.000175835
-4.32752e-06
0.000176773
-4.18559e-06
0.000177676
-4.03115e-06
0.000178543
-3.86293e-06
0.000179369
-3.67941e-06
0.000180152
-3.4788e-06
0.000180889
-3.25896e-06
0.000181574
-3.01732e-06
0.000182203
-2.75077e-06
0.000182772
-2.45558e-06
0.000183275
-2.12716e-06
0.000183706
-1.75993e-06
0.000184058
-1.34701e-06
0.000184323
-8.7988e-07
0.000184495
-3.48027e-07
0.000184564
2.61523e-07
0.000184524
9.64768e-07
0.00018437
1.78182e-06
0.000184099
2.73765e-06
0.000183716
3.8628e-06
0.00018324
5.19372e-06
0.000182709
6.77215e-06
0.000182196
8.64212e-06
0.000181826
1.08419e-05
0.000181791
1.33863e-05
0.000182359
1.62306e-05
0.000183816
1.92064e-05
2.1929e-05
0.00018624
0.000130692
-6.5761e-07
0.000130928
-1.25295e-06
0.000131263
-1.7676e-06
0.000131687
-2.22192e-06
0.000132191
-2.62847e-06
0.000132767
-2.99577e-06
0.000133408
-3.32989e-06
0.000134109
-3.63553e-06
0.000134865
-3.91635e-06
0.000135671
-4.17525e-06
0.000136524
-4.41459e-06
0.00013742
-4.63632e-06
0.000138356
-4.84203e-06
0.000139329
-5.0331e-06
0.000140337
-5.21064e-06
0.000141376
-5.37563e-06
0.000142445
-5.52889e-06
0.000143541
-5.67113e-06
0.000144663
-5.80294e-06
0.000145808
-5.92484e-06
0.000146974
-6.03729e-06
0.000148161
-6.14066e-06
0.000149365
-6.23529e-06
0.000150586
-6.32147e-06
0.000151822
-6.39944e-06
0.00015307
-6.46943e-06
0.000154331
-6.53161e-06
0.000155601
-6.58615e-06
0.00015688
-6.63318e-06
0.000158167
-6.67282e-06
0.000159459
-6.70516e-06
0.000160755
-6.73028e-06
0.000162055
-6.74823e-06
0.000163355
-6.75907e-06
0.000164657
-6.7628e-06
0.000165956
-6.75945e-06
0.000167254
-6.749e-06
0.000168547
-6.73142e-06
0.000169835
-6.70667e-06
0.000171116
-6.67466e-06
0.000172389
-6.63532e-06
0.000173653
-6.58852e-06
0.000174905
-6.53412e-06
0.000176145
-6.47193e-06
0.00017737
-6.40175e-06
0.00017858
-6.32331e-06
0.000179773
-6.23632e-06
0.000180947
-6.14042e-06
0.0001821
-6.0352e-06
0.000183231
-5.92017e-06
0.000184338
-5.79476e-06
0.000185418
-5.65831e-06
0.00018647
-5.51006e-06
0.000187492
-5.3491e-06
0.000188481
-5.17439e-06
0.000189435
-4.98468e-06
0.00019035
-4.77853e-06
0.000191225
-4.55424e-06
0.000192056
-4.30982e-06
0.00019284
-4.04288e-06
0.000193574
-3.75062e-06
0.000194253
-3.4297e-06
0.000194873
-3.07613e-06
0.000195431
-2.68514e-06
0.000195922
-2.25102e-06
0.000196342
-1.76689e-06
0.000196687
-1.22452e-06
0.000196953
-6.13991e-07
0.000197138
7.6413e-08
0.000197243
8.60408e-07
0.000197271
1.75386e-06
0.000197233
2.77555e-06
0.000197149
3.94634e-06
0.000197055
5.28829e-06
0.000197004
6.82253e-06
0.000197081
8.56521e-06
0.000197403
1.05201e-05
0.000198123
1.26661e-05
0.000199415
1.49384e-05
0.00020142
1.72019e-05
1.92292e-05
0.00020412
0.000139841
-7.79209e-07
0.000140086
-1.49782e-06
0.000140437
-2.11856e-06
0.000140883
-2.66752e-06
0.000141413
-3.15899e-06
0.000142021
-3.60297e-06
0.000142698
-4.00677e-06
0.000143438
-4.37605e-06
0.000144237
-4.71524e-06
0.00014509
-5.02787e-06
0.000145993
-5.31679e-06
0.000146941
-5.58435e-06
0.000147931
-5.83251e-06
0.000148961
-6.0629e-06
0.000150028
-6.2769e-06
0.000151128
-6.4757e-06
0.00015226
-6.66028e-06
0.000153421
-6.83149e-06
0.000154608
-6.99007e-06
0.00015582
-7.13665e-06
0.000157055
-7.27177e-06
0.00015831
-7.39589e-06
0.000159585
-7.50942e-06
0.000160876
-7.61272e-06
0.000162183
-7.70607e-06
0.000163504
-7.78975e-06
0.000164836
-7.86399e-06
0.000166179
-7.92897e-06
0.000167531
-7.98486e-06
0.000168891
-8.03181e-06
0.000170256
-8.06993e-06
0.000171625
-8.09932e-06
0.000172997
-8.12004e-06
0.00017437
-8.13216e-06
0.000175744
-8.1357e-06
0.000177115
-8.13069e-06
0.000178483
-8.11711e-06
0.000179847
-8.09493e-06
0.000181205
-8.0641e-06
0.000182555
-8.02455e-06
0.000183896
-7.97618e-06
0.000185227
-7.91884e-06
0.000186545
-7.85238e-06
0.00018785
-7.77659e-06
0.00018914
-7.69123e-06
0.000190413
-7.59602e-06
0.000191667
-7.49061e-06
0.000192901
-7.37461e-06
0.000194114
-7.24754e-06
0.000195303
-7.10888e-06
0.000196466
-6.95798e-06
0.000197602
-6.79412e-06
0.000198709
-6.61644e-06
0.000199784
-6.42395e-06
0.000200825
-6.21551e-06
0.00020183
-5.98979e-06
0.000202797
-5.74523e-06
0.000203723
-5.48003e-06
0.000204605
-5.19208e-06
0.000205441
-4.87892e-06
0.000206228
-4.53769e-06
0.000206964
-4.16503e-06
0.000207645
-3.757e-06
0.000208269
-3.30903e-06
0.000208833
-2.81573e-06
0.000209337
-2.27087e-06
0.00020978
-1.66718e-06
0.000210163
-9.96349e-07
0.000210488
-2.48888e-07
0.000210763
5.85578e-07
0.000210999
1.51771e-06
0.000211215
2.55914e-06
0.000211441
3.72114e-06
0.000211716
5.0132e-06
0.000212097
6.44078e-06
0.000212661
8.00192e-06
0.000213498
9.68239e-06
0.000214715
1.14491e-05
0.000216412
1.32421e-05
0.000218646
1.49674e-05
1.64974e-05
0.000221378
0.000149631
-9.04326e-07
0.000149885
-1.75222e-06
0.000150252
-2.48502e-06
0.000150718
-3.13427e-06
0.000151276
-3.71601e-06
0.000151914
-4.24158e-06
0.000152627
-4.71953e-06
0.000153408
-5.15654e-06
0.000154251
-5.55784e-06
0.00015515
-5.92759e-06
0.000156103
-6.26919e-06
0.000157104
-6.58541e-06
0.000158151
-6.87858e-06
0.000159239
-7.15065e-06
0.000160365
-7.40326e-06
0.000161528
-7.6378e-06
0.000162723
-7.85545e-06
0.000163949
-8.05723e-06
0.000165203
-8.24401e-06
0.000166483
-8.41653e-06
0.000167787
-8.57544e-06
0.000169113
-8.7213e-06
0.000170458
-8.85459e-06
0.000171822
-8.97572e-06
0.000173201
-9.08505e-06
0.000174594
-9.18291e-06
0.000176
-9.26956e-06
0.000177417
-9.34523e-06
0.000178842
-9.41013e-06
0.000180275
-9.46442e-06
0.000181714
-9.50825e-06
0.000183157
-9.54174e-06
0.000184602
-9.56497e-06
0.000186048
-9.57801e-06
0.000187494
-9.58091e-06
0.000188937
-9.5737e-06
0.000190376
-9.55637e-06
0.000191811
-9.52889e-06
0.000193238
-9.49122e-06
0.000194657
-9.44327e-06
0.000196066
-9.38494e-06
0.000197463
-9.31608e-06
0.000198848
-9.23652e-06
0.000200217
-9.14604e-06
0.000201571
-9.04438e-06
0.000202906
-8.93123e-06
0.000204222
-8.80622e-06
0.000205517
-8.66892e-06
0.000206788
-8.51884e-06
0.000208035
-8.3554e-06
0.000209255
-8.17791e-06
0.000210446
-7.98562e-06
0.000211608
-7.77761e-06
0.000212737
-7.55287e-06
0.000213832
-7.3102e-06
0.00021489
-7.04823e-06
0.000215911
-6.7654e-06
0.00021689
-6.45988e-06
0.000217828
-6.12961e-06
0.000218721
-5.7722e-06
0.000219569
-5.3849e-06
0.000220368
-4.96458e-06
0.000221119
-4.50767e-06
0.00022182
-4.01009e-06
0.000222472
-3.46727e-06
0.000223075
-2.87406e-06
0.000223633
-2.22478e-06
0.00022415
-1.51322e-06
0.000224634
-7.32815e-07
0.000225096
1.23261e-07
0.000225553
1.06092e-06
0.000226027
2.08485e-06
0.00022655
3.19859e-06
0.00022716
4.40257e-06
0.000227909
5.69247e-06
0.000228853
7.05713e-06
0.00023006
8.47601e-06
0.000231592
9.91658e-06
0.000233502
1.13323e-05
0.000235807
1.26623e-05
1.38366e-05
0.000238468
0.000160106
-1.03313e-06
0.000160369
-2.01604e-06
0.000160751
-2.8668e-06
0.000161239
-3.62195e-06
0.000161822
-4.29932e-06
0.000162492
-4.91147e-06
0.000163241
-5.46816e-06
0.000164062
-5.9771e-06
0.000164949
-6.44434e-06
0.000165896
-6.87472e-06
0.000166899
-7.27218e-06
0.000167954
-7.63997e-06
0.000169056
-7.98081e-06
0.000170203
-8.29697e-06
0.00017139
-8.59036e-06
0.000172615
-8.86262e-06
0.000173875
-9.11513e-06
0.000175167
-9.34907e-06
0.000176489
-9.56547e-06
0.000177838
-9.7652e-06
0.000179212
-9.94901e-06
0.000180609
-1.01176e-05
0.000182026
-1.02714e-05
0.000183461
-1.04111e-05
0.000184914
-1.05369e-05
0.00018638
-1.06494e-05
0.00018786
-1.07488e-05
0.00018935
-1.08353e-05
0.00019085
-1.09093e-05
0.000192357
-1.09709e-05
0.000193869
-1.10203e-05
0.000195385
-1.10576e-05
0.000196903
-1.1083e-05
0.000198422
-1.10965e-05
0.00019994
-1.10982e-05
0.000201455
-1.10882e-05
0.000202965
-1.10664e-05
0.000204469
-1.10329e-05
0.000205966
-1.09875e-05
0.000207453
-1.09303e-05
0.00020893
-1.0861e-05
0.000210393
-1.07796e-05
0.000211843
-1.06859e-05
0.000213277
-1.05796e-05
0.000214693
-1.04605e-05
0.00021609
-1.03283e-05
0.000217467
-1.01825e-05
0.000218821
-1.00228e-05
0.000220151
-9.84868e-06
0.000221455
-9.65946e-06
0.000222732
-9.45451e-06
0.00022398
-9.23305e-06
0.000225196
-8.99417e-06
0.00022638
-8.73685e-06
0.00022753
-8.45993e-06
0.000228644
-8.16209e-06
0.000229721
-7.84182e-06
0.000230758
-7.49742e-06
0.000231756
-7.12697e-06
0.000232712
-6.72832e-06
0.000233626
-6.29904e-06
0.000234498
-5.83644e-06
0.000235328
-5.33756e-06
0.000236117
-4.79913e-06
0.000236868
-4.21765e-06
0.000237583
-3.5894e-06
0.000238269
-2.91053e-06
0.000238933
-2.1772e-06
0.000239586
-1.38577e-06
0.000240242
-5.32986e-07
0.00024092
3.83495e-07
0.000241641
1.36346e-06
0.000242435
2.40457e-06
0.000243336
3.50183e-06
0.000244382
4.6462e-06
0.000245616
5.82348e-06
0.000247078
7.01344e-06
0.000248806
8.18927e-06
0.00025082
9.31783e-06
0.000253121
1.03614e-05
1.12818e-05
0.000255676
0.000171314
-1.16581e-06
0.000171587
-2.28919e-06
0.000171984
-3.26374e-06
0.000172493
-4.13033e-06
0.000173102
-4.90867e-06
0.000173803
-5.61241e-06
0.000174588
-6.25249e-06
0.000175448
-6.83762e-06
0.000176379
-7.3747e-06
0.000177374
-7.86927e-06
0.000178428
-8.32585e-06
0.000179536
-8.74818e-06
0.000180695
-9.13939e-06
0.0001819
-9.50208e-06
0.000183149
-9.83847e-06
0.000184437
-1.01504e-05
0.000185761
-1.04396e-05
0.00018712
-1.07073e-05
0.00018851
-1.09547e-05
0.000189928
-1.11829e-05
0.000191372
-1.13927e-05
0.000192839
-1.15849e-05
0.000194328
-1.17601e-05
0.000195836
-1.19189e-05
0.000197362
-1.20617e-05
0.000198902
-1.21892e-05
0.000200455
-1.23015e-05
0.000202019
-1.2399e-05
0.000203592
-1.2482e-05
0.000205172
-1.25508e-05
0.000206758
-1.26056e-05
0.000208347
-1.26464e-05
0.000209938
-1.26735e-05
0.000211529
-1.2687e-05
0.000213118
-1.2687e-05
0.000214703
-1.26734e-05
0.000216284
-1.26464e-05
0.000217857
-1.2606e-05
0.000219422
-1.2552e-05
0.000220976
-1.24844e-05
0.000222519
-1.24032e-05
0.000224048
-1.23082e-05
0.000225561
-1.21993e-05
0.000227058
-1.20761e-05
0.000228536
-1.19385e-05
0.000229994
-1.17861e-05
0.000231431
-1.16186e-05
0.000232844
-1.14356e-05
0.000234232
-1.12365e-05
0.000235593
-1.10207e-05
0.000236927
-1.07877e-05
0.00023823
-1.05367e-05
0.000239503
-1.02667e-05
0.000240744
-9.97702e-06
0.00024195
-9.6664e-06
0.000243122
-9.33369e-06
0.000244258
-8.97755e-06
0.000245357
-8.5965e-06
0.000246419
-8.18892e-06
0.000247444
-7.75301e-06
0.000248432
-7.28683e-06
0.000249384
-6.78831e-06
0.000250301
-6.25527e-06
0.000251188
-5.68542e-06
0.000252047
-5.0765e-06
0.000252884
-4.4263e-06
0.000253706
-3.73283e-06
0.000254523
-2.99445e-06
0.000255348
-2.21011e-06
0.000256194
-1.37955e-06
0.000257081
-5.03373e-07
0.000258029
4.15958e-07
0.00025906
1.37301e-06
0.000260203
2.35958e-06
0.000261483
3.36541e-06
0.00026293
4.37677e-06
0.000264567
5.37662e-06
0.000266411
6.34484e-06
0.00026847
7.25911e-06
0.000270735
8.09651e-06
8.83642e-06
0.00027318
0.000183307
-1.3025e-06
0.00018359
-2.57157e-06
0.000184002
-3.67565e-06
0.000184531
-4.65913e-06
0.000185166
-5.5437e-06
0.000185897
-6.34402e-06
0.000186717
-7.07212e-06
0.000187617
-7.73772e-06
0.000188592
-8.34859e-06
0.000189633
-8.91096e-06
0.000190738
-9.42995e-06
0.0001919
-9.90982e-06
0.000193115
-1.03541e-05
0.000194379
-1.07658e-05
0.000195688
-1.11474e-05
0.000197039
-1.15011e-05
0.000198428
-1.18287e-05
0.000199853
-1.21317e-05
0.00020131
-1.24116e-05
0.000202797
-1.26694e-05
0.000204311
-1.29062e-05
0.000205849
-1.31228e-05
0.00020741
-1.33201e-05
0.00020899
-1.34986e-05
0.000210587
-1.36589e-05
0.0002122
-1.38016e-05
0.000213826
-1.3927e-05
0.000215463
-1.40356e-05
0.000217109
-1.41276e-05
0.000218762
-1.42033e-05
0.00022042
-1.42631e-05
0.000222081
-1.43071e-05
0.000223743
-1.43354e-05
0.000225404
-1.43483e-05
0.000227064
-1.43457e-05
0.000228718
-1.43279e-05
0.000230367
-1.42949e-05
0.000232008
-1.42466e-05
0.000233639
-1.4183e-05
0.00023526
-1.41042e-05
0.000236867
-1.40101e-05
0.000238459
-1.39004e-05
0.000240035
-1.37752e-05
0.000241594
-1.36341e-05
0.000243132
-1.34769e-05
0.00024465
-1.33035e-05
0.000246145
-1.31133e-05
0.000247616
-1.29061e-05
0.000249061
-1.26814e-05
0.000250479
-1.24387e-05
0.000251869
-1.21773e-05
0.000253229
-1.18967e-05
0.000254558
-1.1596e-05
0.000255856
-1.12745e-05
0.000257121
-1.09313e-05
0.000258353
-1.05654e-05
0.000259551
-1.01757e-05
0.000260716
-9.76096e-06
0.000261847
-9.32003e-06
0.000262946
-8.85159e-06
0.000264014
-8.35428e-06
0.000265052
-7.82675e-06
0.000266065
-7.26768e-06
0.000267055
-6.67584e-06
0.000268029
-6.05017e-06
0.000268993
-5.3899e-06
0.000269954
-4.69465e-06
0.000270925
-3.9646e-06
0.000271915
-3.2007e-06
0.000272941
-2.40477e-06
0.000274017
-1.5797e-06
0.000275162
-7.29332e-07
0.000276395
1.40778e-07
0.000277732
1.02229e-06
0.000279193
1.90476e-06
0.000280793
2.77624e-06
0.000282546
3.62373e-06
0.000284458
4.43291e-06
0.000286528
5.18925e-06
0.000288745
5.87912e-06
6.49153e-06
0.00029109
0.00019614
-1.4433e-06
0.000196432
-2.8631e-06
0.000196858
-4.10227e-06
0.000197407
-5.20799e-06
0.000198068
-6.20393e-06
0.00019883
-7.10576e-06
0.000199684
-7.92647e-06
0.000200623
-8.67681e-06
0.00020164
-9.36538e-06
0.000202729
-9.99914e-06
0.000203883
-1.05838e-05
0.000205098
-1.11242e-05
0.000206368
-1.16243e-05
0.00020769
-1.20874e-05
0.000209059
-1.25165e-05
0.000210472
-1.29138e-05
0.000211926
-1.32816e-05
0.000213416
-1.36215e-05
0.00021494
-1.39351e-05
0.000216494
-1.42237e-05
0.000218077
-1.44885e-05
0.000219685
-1.47305e-05
0.000221316
-1.49504e-05
0.000222967
-1.51491e-05
0.000224635
-1.53273e-05
0.00022632
-1.54854e-05
0.000228017
-1.56239e-05
0.000229725
-1.57435e-05
0.000231442
-1.58443e-05
0.000233166
-1.59268e-05
0.000234895
-1.59911e-05
0.000236626
-1.60377e-05
0.000238357
-1.60667e-05
0.000240088
-1.60782e-05
0.000241815
-1.60725e-05
0.000243537
-1.60496e-05
0.000245252
-1.60096e-05
0.000246958
-1.59525e-05
0.000248654
-1.58785e-05
0.000250338
-1.57874e-05
0.000252007
-1.56793e-05
0.000253661
-1.5554e-05
0.000255298
-1.54114e-05
0.000256915
-1.52515e-05
0.000258513
-1.50739e-05
0.000260088
-1.48785e-05
0.00026164
-1.46651e-05
0.000263167
-1.44332e-05
0.000264668
-1.41824e-05
0.000266143
-1.39125e-05
0.000267588
-1.36229e-05
0.000269005
-1.33131e-05
0.000270392
-1.29825e-05
0.000271748
-1.26305e-05
0.000273073
-1.22564e-05
0.000274367
-1.18594e-05
0.000275631
-1.1439e-05
0.000276864
-1.09941e-05
0.000278068
-1.05242e-05
0.000279245
-1.00284e-05
0.000280397
-9.50604e-06
0.000281527
-8.95647e-06
0.000282639
-8.37926e-06
0.000283737
-7.77413e-06
0.000284828
-7.14114e-06
0.000285919
-6.48067e-06
0.000287018
-5.79364e-06
0.000288135
-5.08153e-06
0.000289281
-4.34656e-06
0.000290468
-3.59178e-06
0.00029171
-2.82116e-06
0.00029302
-2.03957e-06
0.000294413
-1.25275e-06
0.000295903
-4.66975e-07
0.000297498
3.09435e-07
0.000299207
1.06697e-06
0.000301035
1.79567e-06
0.000302983
2.48516e-06
0.000305046
3.12645e-06
0.000307214
3.71158e-06
4.2348e-06
0.00030947
0.000209871
-1.58826e-06
0.000210172
-3.16359e-06
0.000210613
-4.54323e-06
0.000211182
-5.77638e-06
0.000211866
-6.88872e-06
0.000212658
-7.89684e-06
0.000213546
-8.81468e-06
0.000214523
-9.65393e-06
0.000215582
-1.04241e-05
0.000216716
-1.11328e-05
0.000217919
-1.17864e-05
0.000219185
-1.23902e-05
0.00022051
-1.29488e-05
0.000221889
-1.34657e-05
0.000223317
-1.39443e-05
0.000224791
-1.43873e-05
0.000226306
-1.47969e-05
0.00022786
-1.51751e-05
0.00022945
-1.55238e-05
0.000231071
-1.58443e-05
0.00023272
-1.6138e-05
0.000234396
-1.6406e-05
0.000236096
-1.66492e-05
0.000237815
-1.68685e-05
0.000239553
-1.70647e-05
0.000241307
-1.72383e-05
0.000243073
-1.73901e-05
0.00024485
-1.75204e-05
0.000246636
-1.76298e-05
0.000248429
-1.77185e-05
0.000250225
-1.77871e-05
0.000252023
-1.78357e-05
0.000253822
-1.78646e-05
0.000255618
-1.78741e-05
0.00025741
-1.78643e-05
0.000259197
-1.78355e-05
0.000260975
-1.77876e-05
0.000262744
-1.77209e-05
0.000264501
-1.76353e-05
0.000266245
-1.7531e-05
0.000267974
-1.74079e-05
0.000269686
-1.72661e-05
0.000271381
-1.71053e-05
0.000273055
-1.69257e-05
0.000274709
-1.6727e-05
0.000276339
-1.65091e-05
0.000277946
-1.62718e-05
0.000279528
-1.60149e-05
0.000281084
-1.57381e-05
0.000282613
-1.54412e-05
0.000284115
-1.51239e-05
0.000285587
-1.47857e-05
0.000287031
-1.44263e-05
0.000288447
-1.40454e-05
0.000289833
-1.36426e-05
0.000291191
-1.32174e-05
0.000292522
-1.27695e-05
0.000293826
-1.22985e-05
0.000295106
-1.18041e-05
0.000296364
-1.12863e-05
0.000297603
-1.07447e-05
0.000298827
-1.01797e-05
0.000300039
-9.59144e-06
0.000301245
-8.9805e-06
0.000302452
-8.34779e-06
0.000303666
-7.6946e-06
0.000304895
-7.02269e-06
0.000306148
-6.33435e-06
0.000307434
-5.63248e-06
0.000308763
-4.92061e-06
0.000310145
-4.20294e-06
0.00031159
-3.48432e-06
0.000313107
-2.77018e-06
0.000314707
-2.0664e-06
0.000316395
-1.37893e-06
0.000318176
-7.13828e-07
0.000320049
-7.76628e-08
0.000322012
5.22529e-07
0.000324058
1.08087e-06
0.000326177
1.59251e-06
2.05451e-06
0.000328357
0.000224564
-1.73734e-06
0.000224873
-3.47279e-06
0.000225328
-4.99802e-06
0.000225915
-6.36362e-06
0.000226624
-7.59715e-06
0.000227443
-8.71619e-06
0.000228365
-9.73551e-06
0.000229379
-1.06677e-05
0.000230478
-1.15232e-05
0.000231656
-1.23103e-05
0.000232906
-1.3036e-05
0.000234222
-1.37061e-05
0.000235599
-1.43257e-05
0.000237032
-1.48988e-05
0.000238518
-1.5429e-05
0.00024005
-1.59194e-05
0.000241626
-1.63724e-05
0.000243242
-1.67904e-05
0.000244894
-1.71753e-05
0.000246578
-1.75287e-05
0.000248293
-1.7852e-05
0.000250034
-1.81466e-05
0.000251799
-1.84136e-05
0.000253585
-1.86538e-05
0.000255389
-1.88681e-05
0.000257208
-1.90574e-05
0.000259041
-1.92222e-05
0.000260884
-1.93631e-05
0.000262735
-1.94806e-05
0.000264592
-1.95752e-05
0.000266453
-1.96474e-05
0.000268315
-1.96974e-05
0.000270176
-1.97255e-05
0.000272035
-1.97322e-05
0.000273889
-1.97175e-05
0.000275735
-1.96818e-05
0.000277573
-1.96251e-05
0.000279401
-1.95478e-05
0.000281215
-1.94498e-05
0.000283016
-1.93313e-05
0.000284801
-1.91924e-05
0.000286568
-1.90331e-05
0.000288317
-1.88534e-05
0.000290045
-1.86534e-05
0.000291751
-1.8433e-05
0.000293435
-1.81922e-05
0.000295094
-1.79309e-05
0.000296729
-1.7649e-05
0.000298337
-1.73465e-05
0.000299919
-1.70231e-05
0.000301475
-1.66789e-05
0.000303003
-1.63136e-05
0.000304504
-1.59271e-05
0.000305978
-1.55194e-05
0.000307426
-1.50903e-05
0.000308849
-1.46398e-05
0.000310247
-1.4168e-05
0.000311624
-1.36749e-05
0.000312981
-1.31607e-05
0.00031432
-1.26258e-05
0.000315646
-1.20706e-05
0.000316963
-1.14958e-05
0.000318274
-1.09024e-05
0.000319585
-1.02915e-05
0.000320902
-9.66459e-06
0.000322231
-9.0236e-06
0.000323579
-8.37075e-06
0.000324953
-7.7087e-06
0.000326362
-7.04053e-06
0.000327811
-6.36976e-06
0.000329308
-5.70034e-06
0.000330861
-5.03656e-06
0.000332473
-4.38302e-06
0.000334152
-3.74447e-06
0.000335898
-3.12572e-06
0.000337716
-2.53149e-06
0.000339605
-1.96625e-06
0.000341561
-1.43332e-06
0.000343578
-9.36085e-07
0.000345647
-4.77134e-07
-5.76165e-08
0.000347759
0.000240285
-1.89041e-06
0.000240602
-3.7903e-06
0.00024107
-5.46592e-06
0.000241676
-6.96872e-06
0.000242407
-8.32802e-06
0.000243253
-9.56235e-06
0.000244205
-1.06873e-05
0.000245254
-1.17164e-05
0.000246392
-1.26607e-05
0.000247611
-1.35295e-05
0.000248906
-1.43303e-05
0.00025027
-1.50695e-05
0.000251697
-1.57525e-05
0.000253182
-1.6384e-05
0.000254721
-1.69677e-05
0.00025631
-1.75072e-05
0.000257943
-1.80051e-05
0.000259617
-1.84641e-05
0.000261328
-1.88862e-05
0.000263073
-1.92733e-05
0.000264849
-1.9627e-05
0.000266651
-1.99488e-05
0.000268478
-2.02397e-05
0.000270326
-2.0501e-05
0.000272192
-2.07336e-05
0.000274073
-2.09383e-05
0.000275968
-2.11159e-05
0.000277872
-2.1267e-05
0.000279784
-2.13923e-05
0.000281702
-2.14922e-05
0.000283622
-2.15673e-05
0.000285543
-2.16179e-05
0.000287463
-2.16445e-05
0.000289378
-2.16475e-05
0.000291288
-2.16271e-05
0.000293191
-2.15836e-05
0.000295083
-2.15172e-05
0.000296964
-2.14283e-05
0.000298832
-2.1317e-05
0.000300685
-2.11835e-05
0.000302521
-2.1028e-05
0.000304339
-2.08505e-05
0.000306137
-2.06513e-05
0.000307914
-2.04305e-05
0.00030967