/*--------------------------------*- C++ -*----------------------------------*\
| =========                 |                                                 |
| \\      /  F ield         | OpenFOAM: The Open Source CFD Toolbox           |
|  \\    /   O peration     | Version:  2106                                  |
|   \\  /    A nd           | Website:  www.openfoam.com                      |
|    \\/     M anipulation  |                                                 |
\*---------------------------------------------------------------------------*/
FoamFile
{
    version     2.0;
    format      ascii;
    arch        "LSB;label=32;scalar=64";
    class       volScalarField;
    location    "6.2";
    object      T;
}
// * * * * * * * * * * * * * * * * * * * * * * * * * * * * * * * * * * * * * //

dimensions      [0 0 0 1 0 0 0];

internalField   nonuniform List<scalar> 
12013
(
300.003
300.01
300.017
300.025
300.032
300.04
300.049
300.057
300.067
300.076
300.086
300.096
300.106
300.117
300.129
300.141
300.153
300.166
300.179
300.192
300.206
300.221
300.236
300.252
300.268
300.284
300.302
300.319
300.338
300.357
300.376
300.396
300.417
300.438
300.46
300.483
300.507
300.531
300.555
300.581
300.607
300.634
300.662
300.691
300.72
300.75
300.782
300.814
300.847
300.88
300.915
300.951
300.988
301.026
301.065
301.105
301.146
301.188
301.232
301.277
301.324
301.372
301.421
301.472
301.524
301.579
301.635
301.694
301.754
301.817
301.883
301.951
302.023
302.099
302.179
302.263
302.354
302.453
302.562
302.686
302.834
300.003
300.01
300.017
300.025
300.032
300.04
300.049
300.057
300.067
300.076
300.086
300.096
300.106
300.117
300.129
300.141
300.153
300.166
300.179
300.192
300.206
300.221
300.236
300.252
300.268
300.284
300.302
300.319
300.338
300.357
300.376
300.396
300.417
300.438
300.46
300.483
300.507
300.531
300.555
300.581
300.607
300.634
300.662
300.691
300.72
300.75
300.781
300.813
300.846
300.88
300.915
300.951
300.988
301.025
301.064
301.104
301.146
301.188
301.232
301.277
301.323
301.371
301.42
301.471
301.524
301.578
301.634
301.693
301.753
301.816
301.881
301.949
302.021
302.096
302.175
302.259
302.348
302.445
302.549
302.664
302.791
300.003
300.01
300.017
300.025
300.032
300.04
300.049
300.057
300.067
300.076
300.086
300.096
300.106
300.117
300.129
300.141
300.153
300.165
300.179
300.192
300.206
300.221
300.236
300.252
300.268
300.284
300.302
300.319
300.338
300.357
300.376
300.396
300.417
300.438
300.46
300.483
300.506
300.531
300.555
300.581
300.607
300.634
300.662
300.69
300.72
300.75
300.781
300.813
300.846
300.88
300.915
300.95
300.987
301.025
301.064
301.104
301.145
301.187
301.231
301.276
301.322
301.37
301.419
301.47
301.522
301.576
301.632
301.69
301.75
301.813
301.877
301.945
302.016
302.09
302.167
302.249
302.335
302.427
302.525
302.629
302.737
300.003
300.01
300.017
300.025
300.032
300.04
300.049
300.057
300.067
300.076
300.086
300.096
300.106
300.117
300.129
300.141
300.153
300.165
300.179
300.192
300.206
300.221
300.236
300.252
300.268
300.284
300.301
300.319
300.338
300.356
300.376
300.396
300.417
300.438
300.46
300.483
300.506
300.53
300.555
300.581
300.607
300.634
300.662
300.69
300.72
300.75
300.781
300.813
300.846
300.879
300.914
300.95
300.987
301.024
301.063
301.103
301.144
301.186
301.23
301.274
301.321
301.368
301.417
301.467
301.52
301.573
301.629
301.686
301.746
301.807
301.871
301.938
302.007
302.079
302.155
302.234
302.316
302.403
302.493
302.585
302.679
300.003
300.01
300.017
300.025
300.032
300.04
300.049
300.057
300.067
300.076
300.086
300.096
300.106
300.117
300.129
300.141
300.153
300.165
300.179
300.192
300.206
300.221
300.236
300.251
300.268
300.284
300.301
300.319
300.337
300.356
300.376
300.396
300.417
300.438
300.46
300.483
300.506
300.53
300.555
300.58
300.607
300.634
300.661
300.69
300.719
300.749
300.78
300.812
300.845
300.879
300.913
300.949
300.985
301.023
301.062
301.102
301.142
301.185
301.228
301.272
301.318
301.365
301.414
301.464
301.516
301.569
301.624
301.681
301.739
301.8
301.863
301.928
301.995
302.065
302.138
302.213
302.291
302.372
302.454
302.537
302.62
300.003
300.01
300.017
300.025
300.032
300.04
300.049
300.057
300.066
300.076
300.086
300.096
300.106
300.117
300.129
300.14
300.153
300.165
300.179
300.192
300.206
300.221
300.236
300.251
300.267
300.284
300.301
300.319
300.337
300.356
300.376
300.396
300.417
300.438
300.46
300.482
300.506
300.53
300.555
300.58
300.606
300.633
300.661
300.689
300.718
300.749
300.779
300.811
300.844
300.878
300.912
300.948
300.984
301.022
301.06
301.1
301.14
301.182
301.225
301.269
301.315
301.362
301.41
301.459
301.511
301.563
301.617
301.673
301.731
301.79
301.851
301.915
301.98
302.047
302.117
302.188
302.261
302.335
302.411
302.486
302.56
300.003
300.01
300.017
300.025
300.032
300.04
300.049
300.057
300.066
300.076
300.086
300.096
300.106
300.117
300.129
300.14
300.153
300.165
300.178
300.192
300.206
300.221
300.236
300.251
300.267
300.284
300.301
300.319
300.337
300.356
300.375
300.396
300.416
300.438
300.46
300.482
300.505
300.529
300.554
300.579
300.606
300.632
300.66
300.688
300.718
300.748
300.778
300.81
300.843
300.876
300.911
300.946
300.982
301.019
301.058
301.097
301.137
301.179
301.222
301.266
301.311
301.357
301.404
301.453
301.504
301.555
301.609
301.663
301.72
301.778
301.837
301.898
301.961
302.025
302.091
302.158
302.227
302.295
302.365
302.433
302.5
300.003
300.01
300.017
300.025
300.032
300.04
300.049
300.057
300.066
300.076
300.086
300.096
300.106
300.117
300.129
300.14
300.153
300.165
300.178
300.192
300.206
300.221
300.236
300.251
300.267
300.284
300.301
300.319
300.337
300.356
300.375
300.395
300.416
300.437
300.459
300.482
300.505
300.529
300.553
300.579
300.605
300.632
300.659
300.687
300.716
300.746
300.777
300.809
300.841
300.874
300.909
300.944
300.98
301.017
301.055
301.094
301.134
301.175
301.217
301.261
301.305
301.351
301.398
301.446
301.495
301.546
301.598
301.651
301.706
301.762
301.82
301.878
301.938
302
302.062
302.125
302.188
302.252
302.316
302.379
302.44
300.003
300.01
300.017
300.025
300.032
300.04
300.049
300.057
300.066
300.076
300.086
300.096
300.106
300.117
300.129
300.14
300.153
300.165
300.178
300.192
300.206
300.22
300.235
300.251
300.267
300.284
300.301
300.318
300.337
300.355
300.375
300.395
300.415
300.437
300.459
300.481
300.504
300.528
300.553
300.578
300.604
300.631
300.658
300.686
300.715
300.745
300.775
300.807
300.839
300.872
300.906
300.941
300.977
301.013
301.051
301.09
301.129
301.17
301.212
301.254
301.298
301.343
301.389
301.437
301.485
301.534
301.585
301.637
301.69
301.744
301.799
301.855
301.912
301.97
302.029
302.088
302.147
302.206
302.265
302.323
302.379
300.003
300.01
300.017
300.025
300.032
300.04
300.049
300.057
300.066
300.076
300.086
300.096
300.106
300.117
300.128
300.14
300.152
300.165
300.178
300.192
300.206
300.22
300.235
300.251
300.267
300.283
300.3
300.318
300.336
300.355
300.374
300.394
300.415
300.436
300.458
300.48
300.503
300.527
300.552
300.577
300.603
300.629
300.656
300.685
300.713
300.743
300.773
300.804
300.836
300.869
300.903
300.938
300.973
301.009
301.047
301.085
301.124
301.164
301.205
301.247
301.29
301.334
301.379
301.425
301.472
301.521
301.57
301.62
301.671
301.723
301.776
301.829
301.883
301.938
301.993
302.048
302.103
302.158
302.212
302.266
302.318
300.003
300.01
300.017
300.025
300.032
300.04
300.049
300.057
300.066
300.076
300.085
300.096
300.106
300.117
300.128
300.14
300.152
300.165
300.178
300.191
300.205
300.22
300.235
300.25
300.266
300.283
300.3
300.318
300.336
300.355
300.374
300.394
300.414
300.435
300.457
300.479
300.502
300.526
300.55
300.575
300.601
300.628
300.655
300.683
300.711
300.741
300.771
300.802
300.833
300.866
300.899
300.933
300.968
301.004
301.041
301.079
301.117
301.157
301.197
301.238
301.28
301.323
301.367
301.412
301.458
301.505
301.552
301.6
301.649
301.699
301.749
301.8
301.851
301.903
301.954
302.006
302.057
302.108
302.158
302.208
302.257
300.003
300.01
300.017
300.025
300.032
300.04
300.049
300.057
300.066
300.076
300.085
300.095
300.106
300.117
300.128
300.14
300.152
300.165
300.178
300.191
300.205
300.22
300.235
300.25
300.266
300.283
300.3
300.317
300.335
300.354
300.373
300.393
300.413
300.434
300.456
300.478
300.501
300.525
300.549
300.574
300.599
300.626
300.653
300.68
300.709
300.738
300.768
300.798
300.83
300.862
300.895
300.929
300.963
300.998
301.035
301.072
301.109
301.148
301.187
301.228
301.269
301.311
301.353
301.397
301.441
301.486
301.532
301.578
301.625
301.672
301.72
301.768
301.816
301.865
301.913
301.961
302.009
302.056
302.103
302.149
302.194
300.003
300.01
300.017
300.025
300.032
300.04
300.049
300.057
300.066
300.076
300.085
300.095
300.106
300.117
300.128
300.14
300.152
300.164
300.177
300.191
300.205
300.219
300.234
300.25
300.266
300.282
300.299
300.316
300.335
300.353
300.372
300.392
300.412
300.433
300.455
300.477
300.5
300.523
300.547
300.572
300.597
300.623
300.65
300.677
300.706
300.734
300.764
300.794
300.825
300.857
300.889
300.923
300.957
300.991
301.027
301.063
301.1
301.138
301.176
301.216
301.256
301.296
301.338
301.38
301.422
301.465
301.509
301.553
301.598
301.643
301.688
301.733
301.779
301.824
301.87
301.915
301.959
302.003
302.047
302.09
302.132
300.003
300.01
300.017
300.025
300.032
300.04
300.048
300.057
300.066
300.075
300.085
300.095
300.106
300.117
300.128
300.14
300.152
300.164
300.177
300.191
300.205
300.219
300.234
300.249
300.265
300.281
300.298
300.316
300.334
300.352
300.371
300.391
300.411
300.432
300.453
300.475
300.498
300.521
300.545
300.57
300.595
300.621
300.647
300.674
300.702
300.73
300.76
300.789
300.82
300.851
300.883
300.916
300.949
300.983
301.018
301.053
301.089
301.126
301.164
301.202
301.24
301.28
301.32
301.36
301.401
301.442
301.484
301.526
301.568
301.611
301.654
301.696
301.739
301.782
301.824
301.866
301.908
301.949
301.99
302.03
302.069
300.003
300.01
300.017
300.024
300.032
300.04
300.048
300.057
300.066
300.075
300.085
300.095
300.106
300.116
300.128
300.139
300.151
300.164
300.177
300.19
300.204
300.218
300.233
300.249
300.264
300.281
300.298
300.315
300.333
300.351
300.37
300.39
300.41
300.43
300.452
300.473
300.496
300.519
300.543
300.567
300.592
300.617
300.643
300.67
300.698
300.726
300.754
300.784
300.814
300.845
300.876
300.908
300.941
300.974
301.008
301.042
301.077
301.113
301.149
301.186
301.223
301.261
301.3
301.338
301.377
301.417
301.457
301.497
301.537
301.577
301.617
301.657
301.697
301.737
301.777
301.816
301.855
301.894
301.931
301.969
302.005
300.003
300.01
300.017
300.024
300.032
300.04
300.048
300.057
300.066
300.075
300.085
300.095
300.105
300.116
300.127
300.139
300.151
300.163
300.176
300.19
300.204
300.218
300.233
300.248
300.264
300.28
300.297
300.314
300.332
300.35
300.369
300.388
300.408
300.429
300.45
300.471
300.493
300.516
300.54
300.564
300.588
300.613
300.639
300.666
300.693
300.72
300.749
300.777
300.807
300.837
300.868
300.899
300.931
300.963
300.996
301.029
301.064
301.098
301.133
301.169
301.204
301.241
301.278
301.315
301.352
301.389
301.427
301.465
301.503
301.541
301.579
301.616
301.654
301.691
301.728
301.765
301.801
301.837
301.873
301.907
301.942
300.003
300.01
300.017
300.024
300.032
300.04
300.048
300.057
300.066
300.075
300.085
300.095
300.105
300.116
300.127
300.139
300.151
300.163
300.176
300.189
300.203
300.217
300.232
300.247
300.263
300.279
300.295
300.313
300.33
300.348
300.367
300.386
300.406
300.426
300.447
300.469
300.491
300.513
300.536
300.56
300.584
300.609
300.634
300.66
300.687
300.714
300.742
300.77
300.799
300.828
300.858
300.888
300.919
300.951
300.983
301.015
301.048
301.081
301.115
301.149
301.184
301.218
301.253
301.289
301.324
301.36
301.395
301.431
301.467
301.503
301.538
301.574
301.609
301.644
301.679
301.713
301.747
301.78
301.813
301.846
301.878
300.003
300.01
300.017
300.024
300.032
300.04
300.048
300.057
300.066
300.075
300.084
300.094
300.105
300.115
300.127
300.138
300.15
300.162
300.175
300.189
300.202
300.216
300.231
300.246
300.262
300.278
300.294
300.311
300.329
300.347
300.365
300.384
300.404
300.424
300.444
300.466
300.487
300.51
300.532
300.556
300.58
300.604
300.629
300.654
300.68
300.707
300.734
300.761
300.79
300.818
300.847
300.877
300.907
300.937
300.968
300.999
301.031
301.063
301.095
301.128
301.161
301.194
301.227
301.261
301.295
301.328
301.362
301.396
301.429
301.463
301.496
301.529
301.562
301.595
301.628
301.66
301.691
301.723
301.753
301.784
301.813
300.003
300.01
300.017
300.024
300.032
300.04
300.048
300.056
300.065
300.075
300.084
300.094
300.104
300.115
300.126
300.138
300.15
300.162
300.175
300.188
300.201
300.215
300.23
300.245
300.26
300.276
300.293
300.309
300.327
300.345
300.363
300.382
300.401
300.421
300.441
300.462
300.484
300.505
300.528
300.551
300.574
300.598
300.622
300.647
300.673
300.699
300.725
300.752
300.779
300.807
300.835
300.864
300.893
300.922
300.952
300.982
301.012
301.043
301.074
301.105
301.136
301.168
301.2
301.231
301.263
301.295
301.327
301.358
301.39
301.422
301.453
301.484
301.515
301.545
301.576
301.606
301.635
301.664
301.693
301.721
301.749
300.003
300.01
300.017
300.024
300.032
300.04
300.048
300.056
300.065
300.074
300.084
300.094
300.104
300.115
300.126
300.137
300.149
300.161
300.174
300.187
300.2
300.214
300.229
300.244
300.259
300.275
300.291
300.307
300.325
300.342
300.36
300.379
300.398
300.418
300.438
300.458
300.479
300.501
300.523
300.545
300.568
300.591
300.615
300.64
300.664
300.69
300.715
300.741
300.768
300.795
300.822
300.85
300.877
300.906
300.934
300.963
300.992
301.021
301.051
301.081
301.11
301.14
301.17
301.2
301.23
301.26
301.29
301.32
301.35
301.379
301.408
301.438
301.466
301.495
301.523
301.551
301.579
301.606
301.633
301.659
301.685
300.003
300.01
300.017
300.024
300.032
300.039
300.048
300.056
300.065
300.074
300.083
300.093
300.103
300.114
300.125
300.136
300.148
300.16
300.173
300.186
300.199
300.213
300.227
300.242
300.257
300.273
300.289
300.305
300.322
300.34
300.357
300.376
300.395
300.414
300.433
300.454
300.474
300.495
300.517
300.539
300.561
300.584
300.607
300.631
300.655
300.68
300.704
300.73
300.755
300.781
300.807
300.834
300.861
300.888
300.915
300.943
300.97
300.998
301.026
301.054
301.083
301.111
301.139
301.168
301.196
301.224
301.252
301.28
301.308
301.336
301.363
301.39
301.417
301.444
301.47
301.496
301.522
301.548
301.573
301.597
301.621
300.003
300.01
300.017
300.024
300.031
300.039
300.047
300.056
300.064
300.074
300.083
300.093
300.103
300.113
300.124
300.136
300.147
300.159
300.172
300.185
300.198
300.212
300.226
300.24
300.255
300.271
300.286
300.303
300.319
300.337
300.354
300.372
300.391
300.409
300.429
300.449
300.469
300.489
300.51
300.532
300.554
300.576
300.598
300.621
300.645
300.668
300.692
300.717
300.741
300.766
300.792
300.817
300.843
300.869
300.895
300.921
300.947
300.974
301
301.027
301.054
301.08
301.107
301.134
301.16
301.187
301.213
301.239
301.265
301.291
301.317
301.342
301.368
301.392
301.417
301.441
301.465
301.489
301.512
301.535
301.558
300.003
300.01
300.017
300.024
300.031
300.039
300.047
300.055
300.064
300.073
300.082
300.092
300.102
300.113
300.123
300.135
300.146
300.158
300.171
300.183
300.196
300.21
300.224
300.238
300.253
300.268
300.284
300.3
300.316
300.333
300.35
300.368
300.386
300.405
300.423
300.443
300.462
300.483
300.503
300.524
300.545
300.567
300.589
300.611
300.633
300.656
300.679
300.703
300.726
300.75
300.774
300.799
300.823
300.848
300.873
300.898
300.923
300.948
300.973
300.998
301.023
301.049
301.074
301.099
301.124
301.149
301.173
301.198
301.222
301.246
301.27
301.294
301.318
301.341
301.364
301.387
301.409
301.431
301.453
301.474
301.495
300.003
300.01
300.017
300.024
300.031
300.039
300.047
300.055
300.064
300.073
300.082
300.092
300.102
300.112
300.123
300.134
300.145
300.157
300.169
300.182
300.195
300.208
300.222
300.236
300.25
300.265
300.281
300.297
300.313
300.329
300.346
300.363
300.381
300.399
300.418
300.436
300.456
300.475
300.495
300.515
300.536
300.557
300.578
300.599
300.621
300.643
300.665
300.688
300.71
300.733
300.756
300.78
300.803
300.826
300.85
300.874
300.897
300.921
300.945
300.968
300.992
301.016
301.039
301.063
301.086
301.11
301.133
301.156
301.179
301.201
301.224
301.246
301.268
301.289
301.311
301.332
301.353
301.373
301.394
301.414
301.433
300.003
300.01
300.016
300.023
300.031
300.038
300.046
300.055
300.063
300.072
300.081
300.091
300.101
300.111
300.122
300.132
300.144
300.155
300.168
300.18
300.193
300.206
300.219
300.233
300.248
300.262
300.277
300.293
300.309
300.325
300.341
300.358
300.376
300.393
300.411
300.429
300.448
300.467
300.486
300.506
300.526
300.546
300.566
300.587
300.608
300.629
300.65
300.672
300.693
300.715
300.737
300.759
300.781
300.804
300.826
300.848
300.871
300.893
300.916
300.938
300.96
300.982
301.005
301.027
301.049
301.07
301.092
301.113
301.135
301.156
301.177
301.197
301.218
301.238
301.258
301.278
301.297
301.317
301.335
301.354
301.373
300.003
300.01
300.016
300.023
300.031
300.038
300.046
300.054
300.063
300.071
300.081
300.09
300.1
300.11
300.12
300.131
300.142
300.154
300.166
300.178
300.191
300.204
300.217
300.231
300.245
300.259
300.274
300.289
300.304
300.32
300.336
300.353
300.37
300.387
300.404
300.422
300.44
300.458
300.477
300.496
300.515
300.534
300.554
300.574
300.594
300.614
300.634
300.655
300.675
300.696
300.717
300.738
300.759
300.78
300.801
300.822
300.844
300.865
300.886
300.907
300.928
300.948
300.969
300.99
301.01
301.031
301.051
301.071
301.091
301.111
301.13
301.15
301.169
301.187
301.206
301.224
301.243
301.261
301.278
301.296
301.313
300.003
300.01
300.016
300.023
300.03
300.038
300.046
300.054
300.062
300.071
300.08
300.089
300.099
300.109
300.119
300.13
300.141
300.152
300.164
300.176
300.188
300.201
300.214
300.227
300.241
300.255
300.27
300.284
300.299
300.315
300.331
300.347
300.363
300.38
300.397
300.414
300.431
300.449
300.467
300.485
300.503
300.522
300.541
300.56
300.579
300.598
300.618
300.637
300.657
300.677
300.696
300.716
300.736
300.756
300.776
300.796
300.816
300.836
300.855
300.875
300.895
300.914
300.934
300.953
300.972
300.991
301.01
301.029
301.048
301.066
301.084
301.102
301.12
301.138
301.155
301.172
301.189
301.206
301.222
301.239
301.255
300.003
300.009
300.016
300.023
300.03
300.037
300.045
300.053
300.061
300.07
300.079
300.088
300.098
300.107
300.118
300.128
300.139
300.15
300.162
300.173
300.186
300.198
300.211
300.224
300.237
300.251
300.265
300.28
300.294
300.309
300.325
300.34
300.356
300.372
300.388
300.405
300.422
300.439
300.456
300.474
300.491
300.509
300.527
300.545
300.563
300.582
300.6
300.619
300.638
300.656
300.675
300.694
300.713
300.731
300.75
300.769
300.788
300.806
300.825
300.843
300.862
300.88
300.898
300.917
300.935
300.952
300.97
300.988
301.005
301.022
301.039
301.056
301.072
301.089
301.105
301.121
301.137
301.152
301.168
301.183
301.198
300.003
300.009
300.016
300.023
300.03
300.037
300.045
300.052
300.061
300.069
300.078
300.087
300.096
300.106
300.116
300.126
300.137
300.148
300.159
300.171
300.183
300.195
300.207
300.22
300.233
300.247
300.26
300.274
300.289
300.303
300.318
300.333
300.348
300.364
300.38
300.396
300.412
300.428
300.445
300.462
300.479
300.496
300.513
300.53
300.547
300.565
300.583
300.6
300.618
300.636
300.653
300.671
300.689
300.707
300.724
300.742
300.76
300.777
300.795
300.812
300.829
300.846
300.864
300.88
300.897
300.914
300.93
300.947
300.963
300.979
300.995
301.011
301.026
301.041
301.057
301.071
301.086
301.101
301.115
301.129
301.143
300.003
300.009
300.016
300.022
300.029
300.036
300.044
300.052
300.06
300.068
300.077
300.086
300.095
300.104
300.114
300.124
300.135
300.146
300.157
300.168
300.18
300.192
300.204
300.216
300.229
300.242
300.255
300.269
300.283
300.297
300.311
300.326
300.341
300.356
300.371
300.386
300.402
300.417
300.433
300.449
300.465
300.482
300.498
300.515
300.531
300.548
300.564
300.581
300.598
300.615
300.632
300.648
300.665
300.682
300.698
300.715
300.732
300.748
300.765
300.781
300.797
300.813
300.829
300.845
300.861
300.876
300.892
300.907
300.922
300.937
300.952
300.967
300.981
300.996
301.01
301.024
301.037
301.051
301.064
301.078
301.091
300.003
300.009
300.015
300.022
300.029
300.036
300.043
300.051
300.059
300.067
300.076
300.084
300.093
300.103
300.112
300.122
300.133
300.143
300.154
300.165
300.176
300.188
300.2
300.212
300.224
300.237
300.25
300.263
300.277
300.29
300.304
300.318
300.332
300.347
300.361
300.376
300.391
300.406
300.421
300.437
300.452
300.468
300.483
300.499
300.515
300.531
300.546
300.562
300.578
300.594
300.61
300.626
300.642
300.657
300.673
300.689
300.704
300.72
300.735
300.751
300.766
300.781
300.796
300.811
300.826
300.84
300.855
300.869
300.883
300.897
300.911
300.925
300.938
300.952
300.965
300.978
300.991
301.003
301.016
301.028
301.041
300.003
300.009
300.015
300.022
300.028
300.035
300.043
300.05
300.058
300.066
300.074
300.083
300.092
300.101
300.11
300.12
300.13
300.14
300.151
300.162
300.173
300.184
300.196
300.208
300.22
300.232
300.245
300.257
300.27
300.283
300.297
300.31
300.324
300.338
300.352
300.366
300.381
300.395
300.41
300.424
300.439
300.454
300.469
300.483
300.498
300.513
300.529
300.544
300.559
300.574
300.589
300.604
300.619
300.633
300.648
300.663
300.678
300.692
300.707
300.721
300.736
300.75
300.764
300.778
300.792
300.805
300.819
300.832
300.846
300.859
300.872
300.885
300.897
300.91
300.922
300.934
300.947
300.958
300.97
300.982
300.993
300.003
300.009
300.015
300.021
300.028
300.035
300.042
300.049
300.057
300.065
300.073
300.081
300.09
300.099
300.108
300.118
300.128
300.138
300.148
300.159
300.169
300.18
300.192
300.203
300.215
300.227
300.239
300.251
300.264
300.277
300.289
300.303
300.316
300.329
300.343
300.356
300.37
300.384
300.398
300.412
300.426
300.44
300.454
300.468
300.482
300.497
300.511
300.525
300.54
300.554
300.568
300.582
300.596
300.61
300.624
300.638
300.652
300.666
300.68
300.693
300.707
300.72
300.733
300.746
300.759
300.772
300.785
300.798
300.81
300.823
300.835
300.847
300.859
300.871
300.882
300.894
300.905
300.916
300.927
300.938
300.949
300.003
300.009
300.015
300.021
300.027
300.034
300.041
300.048
300.056
300.064
300.072
300.08
300.089
300.097
300.106
300.116
300.125
300.135
300.145
300.155
300.166
300.177
300.187
300.199
300.21
300.222
300.233
300.245
300.257
300.27
300.282
300.295
300.307
300.32
300.333
300.346
300.359
300.373
300.386
300.399
300.413
300.426
300.44
300.454
300.467
300.481
300.494
300.508
300.521
300.535
300.548
300.562
300.575
300.588
300.602
300.615
300.628
300.641
300.654
300.667
300.68
300.692
300.705
300.717
300.729
300.742
300.754
300.765
300.777
300.789
300.8
300.812
300.823
300.834
300.845
300.856
300.866
300.877
300.887
300.898
300.908
300.003
300.008
300.014
300.021
300.027
300.034
300.04
300.048
300.055
300.063
300.07
300.078
300.087
300.095
300.104
300.113
300.123
300.132
300.142
300.152
300.162
300.173
300.183
300.194
300.205
300.216
300.228
300.239
300.251
300.263
300.275
300.287
300.299
300.312
300.324
300.337
300.35
300.362
300.375
300.388
300.401
300.414
300.427
300.44
300.453
300.465
300.478
300.491
300.504
300.517
300.53
300.543
300.555
300.568
300.581
300.593
300.606
300.618
300.63
300.642
300.654
300.666
300.678
300.69
300.702
300.713
300.725
300.736
300.747
300.758
300.769
300.78
300.79
300.801
300.811
300.821
300.831
300.841
300.851
300.861
300.87
300.003
300.008
300.014
300.02
300.026
300.033
300.04
300.047
300.054
300.061
300.069
300.077
300.085
300.094
300.102
300.111
300.12
300.13
300.139
300.149
300.159
300.169
300.179
300.19
300.201
300.212
300.223
300.234
300.245
300.257
300.268
300.28
300.292
300.304
300.316
300.328
300.34
300.352
300.365
300.377
300.389
300.402
300.414
300.427
300.439
300.452
300.464
300.476
300.489
300.501
300.513
300.525
300.537
300.55
300.562
300.574
300.585
300.597
300.609
300.62
300.632
300.643
300.654
300.666
300.677
300.688
300.698
300.709
300.72
300.73
300.74
300.751
300.761
300.771
300.781
300.79
300.8
300.809
300.819
300.828
300.837
300.003
300.008
300.014
300.02
300.026
300.032
300.039
300.046
300.053
300.06
300.068
300.076
300.084
300.092
300.1
300.109
300.118
300.127
300.136
300.146
300.156
300.166
300.176
300.186
300.196
300.207
300.218
300.229
300.24
300.251
300.262
300.274
300.285
300.297
300.308
300.32
300.332
300.344
300.355
300.367
300.379
300.391
300.403
300.415
300.427
300.439
300.451
300.463
300.475
300.487
300.498
300.51
300.522
300.533
300.545
300.556
300.567
300.579
300.59
300.601
300.612
300.623
300.634
300.644
300.655
300.665
300.676
300.686
300.696
300.706
300.716
300.726
300.735
300.745
300.754
300.763
300.772
300.781
300.79
300.799
300.808
300.003
300.008
300.014
300.02
300.026
300.032
300.038
300.045
300.052
300.059
300.067
300.074
300.082
300.09
300.099
300.107
300.116
300.125
300.134
300.143
300.153
300.163
300.173
300.183
300.193
300.203
300.214
300.224
300.235
300.246
300.257
300.268
300.279
300.29
300.302
300.313
300.325
300.336
300.348
300.359
300.371
300.382
300.394
300.405
300.417
300.428
300.44
300.451
300.463
300.474
300.486
300.497
300.508
300.519
300.53
300.541
300.552
300.563
300.574
300.585
300.595
300.606
300.616
300.626
300.637
300.647
300.657
300.666
300.676
300.686
300.695
300.705
300.714
300.723
300.732
300.741
300.75
300.758
300.767
300.775
300.783
300.003
300.008
300.013
300.019
300.025
300.031
300.038
300.045
300.051
300.059
300.066
300.073
300.081
300.089
300.097
300.106
300.114
300.123
300.132
300.141
300.151
300.16
300.17
300.18
300.19
300.2
300.21
300.221
300.231
300.242
300.253
300.263
300.274
300.285
300.296
300.308
300.319
300.33
300.341
300.352
300.364
300.375
300.386
300.398
300.409
300.42
300.431
300.442
300.454
300.465
300.476
300.487
300.498
300.508
300.519
300.53
300.541
300.551
300.562
300.572
300.582
300.592
300.602
300.612
300.622
300.632
300.642
300.651
300.661
300.67
300.679
300.688
300.697
300.706
300.715
300.723
300.732
300.74
300.748
300.757
300.765
300.003
300.008
300.013
300.019
300.025
300.031
300.037
300.044
300.051
300.058
300.065
300.073
300.08
300.088
300.096
300.105
300.113
300.122
300.131
300.14
300.149
300.158
300.168
300.178
300.188
300.198
300.208
300.218
300.228
300.239
300.25
300.26
300.271
300.282
300.293
300.304
300.315
300.326
300.337
300.348
300.359
300.37
300.381
300.392
300.403
300.414
300.425
300.436
300.447
300.458
300.469
300.48
300.49
300.501
300.511
300.522
300.532
300.543
300.553
300.563
300.573
300.583
300.593
300.603
300.612
300.622
300.631
300.641
300.65
300.659
300.668
300.677
300.685
300.694
300.703
300.711
300.719
300.728
300.736
300.744
300.751
300.003
300.008
300.013
300.019
300.025
300.031
300.037
300.044
300.051
300.058
300.065
300.072
300.08
300.088
300.096
300.104
300.112
300.121
300.13
300.139
300.148
300.157
300.167
300.177
300.186
300.196
300.206
300.217
300.227
300.237
300.248
300.258
300.269
300.28
300.291
300.301
300.312
300.323
300.334
300.345
300.356
300.367
300.378
300.389
300.4
300.411
300.422
300.433
300.444
300.454
300.465
300.476
300.486
300.497
300.507
300.518
300.528
300.538
300.548
300.558
300.568
300.578
300.588
300.597
300.607
300.616
300.626
300.635
300.644
300.653
300.662
300.671
300.679
300.688
300.696
300.705
300.713
300.721
300.729
300.737
300.745
303.029
303.158
303.236
303.308
303.372
303.423
303.459
303.498
303.538
303.576
303.607
303.641
303.676
303.71
303.744
303.777
303.809
303.836
303.866
303.896
303.925
303.955
303.984
304.013
304.043
304.072
304.099
304.128
304.155
304.182
304.21
304.237
304.263
304.289
304.316
304.341
304.367
304.392
304.417
304.442
304.467
304.491
304.517
304.544
304.57
304.596
304.619
304.644
304.671
304.696
304.72
304.743
304.767
304.792
304.817
304.843
304.869
304.895
304.92
304.944
304.965
304.988
305.011
305.036
305.06
305.085
305.109
305.133
305.158
305.181
305.205
305.228
305.252
305.275
305.298
305.321
305.343
305.366
305.388
305.412
305.44
305.464
305.487
305.509
305.529
305.549
305.572
305.598
305.622
305.642
305.661
305.684
305.709
305.729
305.752
305.777
305.8
305.82
305.843
305.865
305.883
305.905
305.924
305.945
305.967
305.991
306.011
306.028
306.048
306.064
306.083
306.104
306.125
306.146
306.164
306.179
306.196
306.215
306.233
306.25
306.262
306.276
306.292
306.307
306.321
306.331
306.343
306.355
306.366
306.376
306.386
306.394
306.401
306.407
306.411
306.415
306.416
306.416
306.415
306.412
306.407
306.4
306.392
306.381
306.368
306.352
306.334
306.313
306.288
306.259
306.223
306.185
306.147
306.103
306.053
305.996
305.934
305.83
305.734
305.614
305.459
302.928
303.041
303.13
303.205
303.271
303.326
303.372
303.416
303.458
303.498
303.534
303.57
303.606
303.642
303.676
303.71
303.742
303.773
303.803
303.834
303.864
303.894
303.924
303.954
303.984
304.013
304.042
304.07
304.098
304.126
304.154
304.181
304.208
304.235
304.261
304.287
304.313
304.339
304.365
304.39
304.415
304.44
304.466
304.493
304.519
304.545
304.569
304.595
304.621
304.646
304.671
304.695
304.719
304.744
304.77
304.795
304.821
304.847
304.872
304.896
304.918
304.942
304.966
304.99
305.014
305.039
305.064
305.088
305.112
305.136
305.16
305.184
305.207
305.231
305.254
305.277
305.3
305.323
305.346
305.371
305.397
305.421
305.444
305.467
305.488
305.509
305.532
305.557
305.58
305.602
305.622
305.645
305.669
305.69
305.714
305.738
305.761
305.782
305.804
305.826
305.846
305.867
305.887
305.908
305.93
305.953
305.974
305.992
306.011
306.029
306.048
306.069
306.09
306.11
306.129
306.145
306.162
306.181
306.199
306.215
306.228
306.243
306.259
306.274
306.288
306.299
306.311
306.322
306.334
306.344
306.354
306.362
306.369
306.375
306.38
306.383
306.385
306.385
306.384
306.381
306.376
306.369
306.361
306.35
306.337
306.321
306.303
306.281
306.257
306.227
306.191
306.154
306.114
306.069
306.018
305.959
305.893
305.792
305.691
305.565
305.395
302.845
302.945
303.031
303.107
303.173
303.232
303.283
303.331
303.375
303.417
303.457
303.495
303.533
303.569
303.605
303.639
303.673
303.705
303.737
303.768
303.799
303.83
303.861
303.891
303.921
303.951
303.98
304.009
304.038
304.066
304.094
304.122
304.149
304.176
304.203
304.23
304.256
304.283
304.309
304.335
304.36
304.386
304.412
304.439
304.465
304.491
304.516