/*--------------------------------*- C++ -*----------------------------------*\
| =========                 |                                                 |
| \\      /  F ield         | OpenFOAM: The Open Source CFD Toolbox           |
|  \\    /   O peration     | Version:  2106                                  |
|   \\  /    A nd           | Website:  www.openfoam.com                      |
|    \\/     M anipulation  |                                                 |
\*---------------------------------------------------------------------------*/
FoamFile
{
    version     2.0;
    format      ascii;
    arch        "LSB;label=32;scalar=64";
    class       volVectorField;
    location    "6.2";
    object      U;
}
// * * * * * * * * * * * * * * * * * * * * * * * * * * * * * * * * * * * * * //

dimensions      [0 1 -1 0 0 0 0];

internalField   nonuniform List<vector> 
12013
(
(0.100036 -1.00977e-05 0)
(0.100184 -1.86673e-05 0)
(0.100424 -2.66193e-05 0)
(0.100735 -3.39592e-05 0)
(0.101109 -4.08635e-05 0)
(0.101542 -4.74312e-05 0)
(0.102027 -5.37266e-05 0)
(0.102561 -5.98006e-05 0)
(0.103139 -6.56916e-05 0)
(0.103757 -7.14301e-05 0)
(0.104413 -7.70396e-05 0)
(0.105105 -8.254e-05 0)
(0.105828 -8.79464e-05 0)
(0.106582 -9.3272e-05 0)
(0.107364 -9.85266e-05 0)
(0.108172 -0.000103718 0)
(0.109005 -0.000108853 0)
(0.10986 -0.000113937 0)
(0.110737 -0.000118972 0)
(0.111633 -0.000123961 0)
(0.112547 -0.000128906 0)
(0.113478 -0.000133806 0)
(0.114424 -0.000138662 0)
(0.115385 -0.000143471 0)
(0.116358 -0.000148231 0)
(0.117344 -0.000152941 0)
(0.118339 -0.000157596 0)
(0.119345 -0.000162192 0)
(0.120358 -0.000166724 0)
(0.121379 -0.000171187 0)
(0.122406 -0.000175576 0)
(0.123438 -0.000179882 0)
(0.124474 -0.000184098 0)
(0.125513 -0.000188216 0)
(0.126554 -0.000192227 0)
(0.127595 -0.00019612 0)
(0.128636 -0.000199885 0)
(0.129676 -0.000203509 0)
(0.130714 -0.000206978 0)
(0.131748 -0.000210278 0)
(0.132777 -0.000213392 0)
(0.133801 -0.000216302 0)
(0.134818 -0.000218988 0)
(0.135828 -0.000221427 0)
(0.136827 -0.000223594 0)
(0.137817 -0.00022546 0)
(0.138795 -0.000226995 0)
(0.13976 -0.000228162 0)
(0.14071 -0.000228919 0)
(0.141645 -0.000229222 0)
(0.142561 -0.000229016 0)
(0.143459 -0.000228241 0)
(0.144336 -0.000226825 0)
(0.14519 -0.000224687 0)
(0.146018 -0.000221729 0)
(0.146819 -0.00021784 0)
(0.14759 -0.000212883 0)
(0.148328 -0.0002067 0)
(0.149029 -0.000199098 0)
(0.14969 -0.000189844 0)
(0.150307 -0.000178652 0)
(0.150874 -0.00016517 0)
(0.151386 -0.00014896 0)
(0.151836 -0.000129467 0)
(0.152216 -0.000105986 0)
(0.152515 -7.76008e-05 0)
(0.152721 -4.31112e-05 0)
(0.15282 -9.09203e-07 0)
(0.152792 5.11763e-05 0)
(0.152613 0.00011629 0)
(0.152251 0.000198882 0)
(0.151662 0.000305496 0)
(0.150788 0.000446063 0)
(0.149545 0.000636141 0)
(0.14781 0.00090095 0)
(0.145403 0.0012828 0)
(0.14204 0.00185532 0)
(0.137254 0.00275444 0)
(0.130262 0.0042733 0)
(0.119987 0.0072726 0)
(0.108193 0.0157932 0)
(0.100033 -3.08303e-05 0)
(0.100181 -5.7233e-05 0)
(0.10042 -8.16552e-05 0)
(0.100729 -0.000104182 0)
(0.101103 -0.000125371 0)
(0.101535 -0.000145526 0)
(0.102019 -0.000164843 0)
(0.102552 -0.00018348 0)
(0.103129 -0.000201554 0)
(0.103746 -0.000219158 0)
(0.104401 -0.000236366 0)
(0.105092 -0.000253237 0)
(0.105814 -0.00026982 0)
(0.106567 -0.000286154 0)
(0.107348 -0.000302268 0)
(0.108155 -0.00031819 0)
(0.108986 -0.000333937 0)
(0.10984 -0.000349524 0)
(0.110715 -0.000364962 0)
(0.11161 -0.000380259 0)
(0.112523 -0.000395418 0)
(0.113452 -0.00041044 0)
(0.114397 -0.000425323 0)
(0.115356 -0.000440063 0)
(0.116328 -0.000454654 0)
(0.117311 -0.000469087 0)
(0.118306 -0.000483352 0)
(0.119309 -0.000497436 0)
(0.120321 -0.000511323 0)
(0.12134 -0.000524998 0)
(0.122365 -0.000538441 0)
(0.123395 -0.000551632 0)
(0.124429 -0.000564546 0)
(0.125466 -0.000577159 0)
(0.126504 -0.000589442 0)
(0.127543 -0.000601364 0)
(0.128582 -0.000612891 0)
(0.12962 -0.000623984 0)
(0.130655 -0.000634604 0)
(0.131687 -0.000644704 0)
(0.132714 -0.000654233 0)
(0.133735 -0.000663136 0)
(0.13475 -0.000671352 0)
(0.135756 -0.00067881 0)
(0.136754 -0.000685435 0)
(0.137741 -0.000691139 0)
(0.138716 -0.000695826 0)
(0.139678 -0.000699386 0)
(0.140625 -0.000701694 0)
(0.141557 -0.000702608 0)
(0.142471 -0.000701966 0)
(0.143366 -0.000699582 0)
(0.14424 -0.000695239 0)
(0.145091 -0.000688687 0)
(0.145917 -0.000679632 0)
(0.146716 -0.00066773 0)
(0.147484 -0.000652572 0)
(0.14822 -0.000633672 0)
(0.14892 -0.000610446 0)
(0.14958 -0.000582186 0)
(0.150196 -0.000548028 0)
(0.150763 -0.000506909 0)
(0.151276 -0.000457504 0)
(0.151728 -0.000398146 0)
(0.152111 -0.000326713 0)
(0.152416 -0.000240468 0)
(0.152631 -0.000135831 0)
(0.152743 -8.04286e-06 0)
(0.152733 0.000149321 0)
(0.152581 0.000345304 0)
(0.152258 0.000592676 0)
(0.151728 0.000909949 0)
(0.150942 0.00132468 0)
(0.149836 0.00187898 0)
(0.148321 0.00263894 0)
(0.146279 0.00371067 0)
(0.143549 0.00526719 0)
(0.13991 0.00759292 0)
(0.135092 0.0111587 0)
(0.129111 0.0166549 0)
(0.124222 0.0244356 0)
(0.100031 -5.24001e-05 0)
(0.100176 -9.81679e-05 0)
(0.100413 -0.000140231 0)
(0.100721 -0.000179016 0)
(0.101092 -0.00021549 0)
(0.101522 -0.000250178 0)
(0.102005 -0.00028342 0)
(0.102535 -0.000315485 0)
(0.10311 -0.00034658 0)
(0.103725 -0.000376864 0)
(0.104379 -0.000406464 0)
(0.105067 -0.000435483 0)
(0.105787 -0.000464004 0)
(0.106537 -0.000492093 0)
(0.107316 -0.000519805 0)
(0.10812 -0.000547181 0)
(0.108949 -0.000574256 0)
(0.109801 -0.000601055 0)
(0.110673 -0.000627595 0)
(0.111565 -0.00065389 0)
(0.112474 -0.000679945 0)
(0.113401 -0.000705763 0)
(0.114343 -0.00073134 0)
(0.115298 -0.000756669 0)
(0.116267 -0.00078174 0)
(0.117247 -0.000806537 0)
(0.118238 -0.000831042 0)
(0.119238 -0.000855233 0)
(0.120246 -0.000879084 0)
(0.121261 -0.000902567 0)
(0.122282 -0.000925649 0)
(0.123308 -0.000948294 0)
(0.124338 -0.000970463 0)
(0.12537 -0.000992109 0)
(0.126404 -0.00101319 0)
(0.127439 -0.00103364 0)
(0.128474 -0.00105341 0)
(0.129507 -0.00107243 0)
(0.130537 -0.00109064 0)
(0.131564 -0.00110795 0)
(0.132586 -0.00112427 0)
(0.133602 -0.00113952 0)
(0.134611 -0.00115358 0)
(0.135612 -0.00116634 0)
(0.136604 -0.00117767 0)
(0.137586 -0.00118741 0)
(0.138555 -0.00119541 0)
(0.139512 -0.00120146 0)
(0.140454 -0.00120537 0)
(0.14138 -0.00120689 0)
(0.142288 -0.00120574 0)
(0.143178 -0.00120161 0)
(0.144046 -0.00119412 0)
(0.144892 -0.00118286 0)
(0.145712 -0.00116732 0)
(0.146506 -0.00114693 0)
(0.14727 -0.00112099 0)
(0.148001 -0.00108868 0)
(0.148697 -0.00104903 0)
(0.149354 -0.00100084 0)
(0.149968 -0.00094268 0)
(0.150534 -0.000872778 0)
(0.151047 -0.000788941 0)
(0.151502 -0.000688426 0)
(0.151891 -0.000567759 0)
(0.152206 -0.000422496 0)
(0.152436 -0.000246874 0)
(0.152569 -3.33257e-05 0)
(0.152592 0.00022825 0)
(0.152486 0.000551662 0)
(0.15223 0.000956077 0)
(0.151798 0.0014685 0)
(0.151156 0.00212766 0)
(0.150268 0.00299005 0)
(0.149089 0.00413918 0)
(0.147575 0.00569908 0)
(0.145693 0.00785216 0)
(0.143447 0.0108569 0)
(0.140948 0.0150498 0)
(0.138618 0.0207166 0)
(0.1377 0.0273237 0)
(0.100028 -7.46188e-05 0)
(0.100171 -0.000141355 0)
(0.100404 -0.000202275 0)
(0.100709 -0.000258479 0)
(0.101077 -0.000311312 0)
(0.101504 -0.00036154 0)
(0.101984 -0.000409663 0)
(0.102511 -0.000456076 0)
(0.103083 -0.000501077 0)
(0.103695 -0.000544899 0)
(0.104345 -0.000587726 0)
(0.10503 -0.000629707 0)
(0.105746 -0.000670962 0)
(0.106493 -0.000711589 0)
(0.107268 -0.000751664 0)
(0.108069 -0.000791251 0)
(0.108893 -0.000830397 0)
(0.109741 -0.000869139 0)
(0.110609 -0.000907504 0)
(0.111496 -0.000945508 0)
(0.112402 -0.000983163 0)
(0.113323 -0.00102047 0)
(0.11426 -0.00105742 0)
(0.115211 -0.00109401 0)
(0.116175 -0.00113022 0)
(0.11715 -0.00116603 0)
(0.118135 -0.00120142 0)
(0.119129 -0.00123634 0)
(0.120132 -0.00127077 0)
(0.121141 -0.00130466 0)
(0.122156 -0.00133796 0)
(0.123176 -0.00137063 0)
(0.124199 -0.0014026 0)
(0.125225 -0.00143381 0)
(0.126253 -0.00146419 0)
(0.127281 -0.00149366 0)
(0.128308 -0.00152214 0)
(0.129334 -0.00154953 0)
(0.130357 -0.00157574 0)
(0.131376 -0.00160064 0)
(0.132391 -0.00162412 0)
(0.133399 -0.00164603 0)
(0.134401 -0.00166623 0)
(0.135394 -0.00168454 0)
(0.136378 -0.00170077 0)
(0.137351 -0.00171471 0)
(0.138312 -0.00172613 0)
(0.13926 -0.00173475 0)
(0.140194 -0.00174028 0)
(0.141111 -0.00174235 0)
(0.142012 -0.0017406 0)
(0.142893 -0.00173455 0)
(0.143753 -0.00172369 0)
(0.14459 -0.00170741 0)
(0.145403 -0.00168502 0)
(0.146189 -0.00165569 0)
(0.146946 -0.00161845 0)
(0.147672 -0.00157216 0)
(0.148362 -0.00151545 0)
(0.149015 -0.00144667 0)
(0.149626 -0.00136383 0)
(0.150191 -0.00126449 0)
(0.150707 -0.00114568 0)
(0.151166 -0.00100368 0)
(0.151565 -0.000833819 0)
(0.151894 -0.000630215 0)
(0.152147 -0.000385323 0)
(0.152314 -8.93948e-05 0)
(0.152383 0.000270252 0)
(0.152344 0.000710486 0)
(0.152181 0.00125403 0)
(0.151882 0.00193167 0)
(0.15143 0.00278546 0)
(0.150815 0.00387303 0)
(0.150031 0.00527322 0)
(0.149092 0.00709192 0)
(0.148045 0.0094652 0)
(0.147001 0.0125499 0)
(0.146178 0.0164783 0)
(0.145955 0.0212061 0)
(0.146876 0.0260801 0)
(0.100025 -9.74911e-05 0)
(0.100165 -0.00018671 0)
(0.100394 -0.000267745 0)
(0.100695 -0.000342588 0)
(0.101059 -0.000412916 0)
(0.101482 -0.00047975 0)
(0.101957 -0.000543768 0)
(0.10248 -0.000605497 0)
(0.103048 -0.000665336 0)
(0.103655 -0.000723596 0)
(0.104301 -0.000780523 0)
(0.104981 -0.000836317 0)
(0.105693 -0.000891137 0)
(0.106435 -0.000945114 0)
(0.107204 -0.00099835 0)
(0.108 -0.00105093 0)
(0.108819 -0.00110291 0)
(0.109661 -0.00115435 0)
(0.110523 -0.00120529 0)
(0.111404 -0.00125573 0)
(0.112303 -0.0013057 0)
(0.113219 -0.0013552 0)
(0.114149 -0.00140422 0)
(0.115094 -0.00145276 0)
(0.11605 -0.00150078 0)
(0.117018 -0.00154826 0)
(0.117996 -0.00159516 0)
(0.118983 -0.00164144 0)
(0.119978 -0.00168705 0)
(0.120979 -0.00173194 0)
(0.121986 -0.00177604 0)
(0.122997 -0.00181929 0)
(0.124012 -0.00186159 0)
(0.125029 -0.00190288 0)
(0.126048 -0.00194306 0)
(0.127067 -0.00198202 0)
(0.128085 -0.00201965 0)
(0.129101 -0.00205583 0)
(0.130114 -0.00209042 0)
(0.131124 -0.00212327 0)
(0.132128 -0.00215422 0)
(0.133126 -0.00218308 0)
(0.134117 -0.00220966 0)
(0.1351 -0.00223373 0)
(0.136073 -0.00225504 0)
(0.137035 -0.00227331 0)
(0.137985 -0.00228823 0)
(0.138922 -0.00229945 0)
(0.139845 -0.00230657 0)
(0.140752 -0.00230915 0)
(0.141641 -0.00230666 0)
(0.142511 -0.00229852 0)
(0.143361 -0.00228406 0)
(0.144188 -0.0022625 0)
(0.144991 -0.00223294 0)
(0.145768 -0.00219432 0)
(0.146516 -0.00214542 0)
(0.147234 -0.00208477 0)
(0.147918 -0.00201064 0)
(0.148566 -0.00192098 0)
(0.149175 -0.00181329 0)
(0.149741 -0.00168459 0)
(0.15026 -0.00153121 0)
(0.150727 -0.00134866 0)
(0.151139 -0.00113137 0)
(0.15149 -0.000872413 0)
(0.151774 -0.00056306 0)
(0.151984 -0.000192294 0)
(0.152115 0.000253821 0)
(0.15216 0.000793101 0)
(0.152113 0.00144868 0)
(0.151971 0.00225043 0)
(0.151735 0.00323677 0)
(0.151412 0.00445662 0)
(0.151025 0.00597088 0)
(0.150617 0.00785194 0)
(0.150265 0.0101778 0)
(0.150098 0.0130131 0)
(0.150304 0.016364 0)
(0.151128 0.0200803 0)
(0.152788 0.0236885 0)
(0.100022 -0.000121025 0)
(0.100159 -0.000234154 0)
(0.100384 -0.000336588 0)
(0.100679 -0.000431328 0)
(0.101038 -0.000520343 0)
(0.101455 -0.000604905 0)
(0.101925 -0.000685883 0)
(0.102443 -0.000763945 0)
(0.103005 -0.000839598 0)
(0.103607 -0.000913239 0)
(0.104246 -0.000985179 0)
(0.10492 -0.00105567 0)
(0.105626 -0.00112492 0)
(0.106362 -0.00119309 0)
(0.107125 -0.00126031 0)
(0.107913 -0.00132669 0)
(0.108726 -0.00139231 0)
(0.10956 -0.00145722 0)
(0.110415 -0.00152148 0)
(0.111289 -0.00158511 0)
(0.11218 -0.00164813 0)
(0.113087 -0.00171054 0)
(0.11401 -0.00177234 0)
(0.114945 -0.0018335 0)
(0.115893 -0.001894 0)
(0.116852 -0.00195381 0)
(0.11782 -0.00201287 0)
(0.118798 -0.00207113 0)
(0.119783 -0.00212853 0)
(0.120774 -0.00218501 0)
(0.121771 -0.00224047 0)
(0.122771 -0.00229483 0)
(0.123776 -0.002348 0)
(0.124782 -0.00239987 0)
(0.125789 -0.00245031 0)
(0.126796 -0.0024992 0)
(0.127803 -0.0025464 0)
(0.128807 -0.00259176 0)
(0.129808 -0.00263509 0)
(0.130805 -0.00267621 0)
(0.131797 -0.00271492 0)
(0.132782 -0.00275099 0)
(0.13376 -0.00278417 0)
(0.134729 -0.00281417 0)
(0.135689 -0.00284069 0)
(0.136638 -0.00286339 0)
(0.137575 -0.00288186 0)
(0.138499 -0.00289569 0)
(0.139408 -0.00290437 0)
(0.140301 -0.00290736 0)
(0.141177 -0.00290403 0)
(0.142034 -0.00289366 0)
(0.142871 -0.00287543 0)
(0.143686 -0.00284839 0)
(0.144478 -0.00281145 0)
(0.145244 -0.00276336 0)
(0.145983 -0.00270263 0)
(0.146692 -0.00262754 0)
(0.14737 -0.00253605 0)
(0.148013 -0.00242575 0)
(0.14862 -0.00229378 0)
(0.149187 -0.00213668 0)
(0.149712 -0.00195033 0)
(0.150191 -0.00172971 0)
(0.150621 -0.00146874 0)
(0.150999 -0.00115995 0)
(0.151322 -0.000794194 0)
(0.151586 -0.000360198 0)
(0.15179 0.000155868 0)
(0.151931 0.000770701 0)
(0.152013 0.00150512 0)
(0.152039 0.00238451 0)
(0.152021 0.00343929 0)
(0.15198 0.00470488 0)
(0.151948 0.00622052 0)
(0.151977 0.00802577 0)
(0.152145 0.0101524 0)
(0.152554 0.0126082 0)
(0.153334 0.0153484 0)
(0.154621 0.0182296 0)
(0.156487 0.0209593 0)
(0.100019 -0.00014523 0)
(0.100153 -0.000283621 0)
(0.100372 -0.000408752 0)
(0.100661 -0.000524666 0)
(0.101015 -0.000633597 0)
(0.101426 -0.000737057 0)
(0.101889 -0.000836107 0)
(0.1024 -0.000931564 0)
(0.102955 -0.00102405 0)
(0.10355 -0.00111406 0)
(0.104182 -0.00120196 0)
(0.104849 -0.00128807 0)
(0.105547 -0.00137265 0)
(0.106275 -0.00145588 0)
(0.10703 -0.00153794 0)
(0.10781 -0.00161894 0)
(0.108614 -0.001699 0)
(0.109439 -0.00177818 0)
(0.110285 -0.00185654 0)
(0.11115 -0.00193412 0)
(0.112031 -0.00201093 0)
(0.112929 -0.00208698 0)
(0.113841 -0.00216226 0)
(0.114766 -0.00223674 0)
(0.115703 -0.0023104 0)
(0.116651 -0.00238318 0)
(0.117608 -0.00245504 0)
(0.118574 -0.0025259 0)
(0.119547 -0.00259569 0)
(0.120526 -0.00266432 0)
(0.12151 -0.0027317 0)
(0.122498 -0.00279771 0)
(0.123489 -0.00286224 0)
(0.124482 -0.00292516 0)
(0.125476 -0.00298632 0)
(0.126469 -0.00304556 0)
(0.127462 -0.00310272 0)
(0.128451 -0.0031576 0)
(0.129438 -0.00320999 0)
(0.13042 -0.00325968 0)
(0.131397 -0.00330641 0)
(0.132367 -0.0033499 0)
(0.133329 -0.00338986 0)
(0.134283 -0.00342594 0)
(0.135227 -0.00345779 0)
(0.13616 -0.00348497 0)
(0.137081 -0.00350704 0)
(0.137989 -0.00352347 0)
(0.138883 -0.00353369 0)
(0.13976 -0.00353704 0)
(0.140621 -0.00353278 0)
(0.141463 -0.00352008 0)
(0.142286 -0.00349798 0)
(0.143087 -0.00346539 0)
(0.143866 -0.00342106 0)
(0.14462 -0.00336353 0)
(0.145349 -0.00329113 0)
(0.146049 -0.00320192 0)
(0.14672 -0.00309364 0)
(0.14736 -0.00296361 0)
(0.147966 -0.00280871 0)
(0.148537 -0.00262525 0)
(0.14907 -0.00240884 0)
(0.149564 -0.00215429 0)
(0.150017 -0.00185539 0)
(0.150428 -0.00150474 0)
(0.150795 -0.0010935 0)
(0.15112 -0.000611164 0)
(0.151402 -4.52476e-05 0)
(0.151646 0.000618538 0)
(0.151858 0.0013967 0)
(0.152048 0.00230828 0)
(0.152234 0.00337412 0)
(0.152439 0.00461587 0)
(0.152698 0.00605372 0)
(0.153059 0.00770254 0)
(0.153581 0.00956532 0)
(0.154337 0.0116231 0)
(0.155405 0.0138208 0)
(0.156848 0.0160506 0)
(0.158683 0.0181427 0)
(0.100016 -0.000170128 0)
(0.100147 -0.000335065 0)
(0.10036 -0.00048419 0)
(0.100643 -0.000622558 0)
(0.100989 -0.000752662 0)
(0.101393 -0.000876222 0)
(0.101849 -0.000994496 0)
(0.102352 -0.00110845 0)
(0.102899 -0.00121883 0)
(0.103486 -0.00132622 0)
(0.104109 -0.00143107 0)
(0.104767 -0.00153375 0)
(0.105456 -0.00163458 0)
(0.106175 -0.00173377 0)
(0.10692 -0.00183154 0)
(0.10769 -0.00192802 0)
(0.108484 -0.00202335 0)
(0.109299 -0.00211761 0)
(0.110134 -0.00221086 0)
(0.110987 -0.00230315 0)
(0.111858 -0.0023945 0)
(0.112743 -0.00248492 0)
(0.113643 -0.00257439 0)
(0.114556 -0.00266288 0)
(0.11548 -0.00275036 0)
(0.116415 -0.00283678 0)
(0.117359 -0.00292205 0)
(0.118311 -0.00300611 0)
(0.11927 -0.00308887 0)
(0.120235 -0.00317021 0)
(0.121205 -0.00325003 0)
(0.122178 -0.0033282 0)
(0.123154 -0.00340457 0)
(0.124131 -0.00347898 0)
(0.125109 -0.00355127 0)
(0.126086 -0.00362126 0)
(0.127062 -0.00368873 0)
(0.128035 -0.00375346 0)
(0.129004 -0.00381522 0)
(0.129969 -0.00387372 0)
(0.130929 -0.00392869 0)
(0.131881 -0.00397979 0)
(0.132826 -0.00402668 0)
(0.133762 -0.00406897 0)
(0.134688 -0.00410621 0)
(0.135603 -0.00413795 0)
(0.136506 -0.00416363 0)
(0.137396 -0.00418268 0)
(0.138272 -0.00419442 0)
(0.139132 -0.00419811 0)
(0.139976 -0.00419292 0)
(0.140801 -0.0041779 0)
(0.141608 -0.00415198 0)
(0.142395 -0.00411394 0)
(0.143159 -0.0040624 0)
(0.143901 -0.00399577 0)
(0.144619 -0.00391225 0)
(0.14531 -0.00380973 0)
(0.145975 -0.00368581 0)
(0.146611 -0.0035377 0)
(0.147218 -0.00336218 0)
(0.147794 -0.00315549 0)
(0.148338 -0.00291328 0)
(0.14885 -0.00263047 0)
(0.14933 -0.0023012 0)
(0.149776 -0.00191865 0)
(0.150192 -0.00147495 0)
(0.150579 -0.000961123 0)
(0.150942 -0.000366964 0)
(0.151287 0.000318857 0)
(0.151622 0.00110767 0)
(0.151961 0.00201184 0)
(0.152322 0.00304335 0)
(0.152727 0.00421246 0)
(0.153207 0.0055256 0)
(0.153799 0.00698241 0)
(0.154544 0.00857167 0)
(0.155488 0.0102662 0)
(0.156672 0.0120177 0)
(0.158122 0.0137525 0)
(0.159833 0.0153746 0)
(0.100013 -0.000195753 0)
(0.100141 -0.000388456 0)
(0.100349 -0.000562862 0)
(0.100624 -0.00072496 0)
(0.100963 -0.000877504 0)
(0.101358 -0.00102239 0)
(0.101806 -0.00116107 0)
(0.1023 -0.00129465 0)
(0.102837 -0.00142401 0)
(0.103415 -0.00154983 0)
(0.104028 -0.00167264 0)
(0.104676 -0.00179287 0)
(0.105354 -0.00191089 0)
(0.106062 -0.00202697 0)
(0.106796 -0.00214133 0)
(0.107555 -0.00225416 0)
(0.108336 -0.0023656 0)
(0.109139 -0.00247575 0)
(0.109962 -0.00258469 0)
(0.110802 -0.00269247 0)
(0.111659 -0.00279911 0)
(0.112531 -0.00290462 0)
(0.113417 -0.00300899 0)
(0.114316 -0.00311218 0)
(0.115226 -0.00321414 0)
(0.116145 -0.00331482 0)
(0.117074 -0.00341413 0)
(0.11801 -0.00351198 0)
(0.118953 -0.00360826 0)
(0.119902 -0.00370285 0)
(0.120854 -0.00379562 0)
(0.12181 -0.00388641 0)
(0.122769 -0.00397507 0)
(0.123728 -0.0040614 0)
(0.124688 -0.00414521 0)
(0.125647 -0.00422629 0)
(0.126604 -0.0043044 0)
(0.127558 -0.00437927 0)
(0.128508 -0.00445064 0)
(0.129454 -0.00451818 0)
(0.130393 -0.00458158 0)
(0.131326 -0.00464045 0)
(0.132251 -0.0046944 0)
(0.133167 -0.00474299 0)
(0.134073 -0.00478572 0)
(0.134968 -0.00482205 0)
(0.135851 -0.0048514 0)
(0.136721 -0.00487309 0)
(0.137577 -0.00488639 0)
(0.138418 -0.00489047 0)
(0.139243 -0.00488443 0)
(0.140051 -0.00486722 0)
(0.140841 -0.0048377 0)
(0.141612 -0.00479454 0)
(0.142362 -0.00473629 0)
(0.14309 -0.00466128 0)
(0.143797 -0.0045676 0)
(0.14448 -0.00445312 0)
(0.145139 -0.00431539 0)
(0.145773 -0.00415164 0)
(0.146381 -0.00395871 0)
(0.146964 -0.00373299 0)
(0.147521 -0.00347041 0)
(0.148052 -0.00316636 0)
(0.14856 -0.00281563 0)
(0.149044 -0.00241241 0)
(0.149508 -0.00195028 0)
(0.149957 -0.00142225 0)
(0.150396 -0.000820833 0)
(0.150832 -0.000138174 0)
(0.151276 0.000633203 0)
(0.151741 0.0014991 0)
(0.152241 0.00246456 0)
(0.152798 0.00353187 0)
(0.153434 0.00469909 0)
(0.154174 0.00595826 0)
(0.155046 0.00729339 0)
(0.156074 0.00867847 0)
(0.157279 0.0100763 0)
(0.158668 0.0114391 0)
(0.16023 0.0127125 0)
(0.10001 -0.00022214 0)
(0.100135 -0.000443774 0)
(0.100337 -0.000644736 0)
(0.100605 -0.000831824 0)
(0.100935 -0.00100807 0)
(0.101322 -0.00117552 0)
(0.101759 -0.00133579 0)
(0.102244 -0.00149016 0)
(0.102771 -0.00163961 0)
(0.103337 -0.00178493 0)
(0.103939 -0.00192673 0)
(0.104575 -0.00206551 0)
(0.105242 -0.00220169 0)
(0.105937 -0.00233557 0)
(0.106658 -0.00246744 0)
(0.107404 -0.00259749 0)
(0.108172 -0.00272589 0)
(0.108961 -0.00285276 0)
(0.109769 -0.00297819 0)
(0.110595 -0.00310222 0)
(0.111437 -0.0032249 0)
(0.112294 -0.00334623 0)
(0.113164 -0.00346619 0)
(0.114046 -0.00358475 0)
(0.114939 -0.00370184 0)
(0.115842 -0.0038174 0)
(0.116753 -0.00393133 0)
(0.117672 -0.00404353 0)
(0.118596 -0.00415387 0)
(0.119526 -0.00426222 0)
(0.12046 -0.00436841 0)
(0.121397 -0.00447228 0)
(0.122335 -0.00457363 0)
(0.123275 -0.00467226 0)
(0.124214 -0.00476795 0)
(0.125152 -0.00486044 0)
(0.126089 -0.00494946 0)
(0.127022 -0.00503473 0)
(0.12795 -0.00511593 0)
(0.128874 -0.00519271 0)
(0.129792 -0.00526469 0)
(0.130703 -0.00533147 0)
(0.131605 -0.00539259 0)
(0.132499 -0.00544757 0)
(0.133383 -0.00549586 0)
(0.134256 -0.00553686 0)
(0.135118 -0.00556993 0)
(0.135967 -0.00559435 0)
(0.136802 -0.00560932 0)
(0.137622 -0.00561395 0)
(0.138427 -0.00560728 0)
(0.139216 -0.0055882 0)
(0.139988 -0.0055555 0)
(0.140742 -0.00550784 0)
(0.141477 -0.0054437 0)
(0.142192 -0.0053614 0)
(0.142887 -0.00525904 0)
(0.143562 -0.00513451 0)
(0.144215 -0.00498546 0)
(0.144848 -0.00480925 0)
(0.145459 -0.00460295 0)
(0.146049 -0.00436331 0)
(0.146619 -0.00408674 0)
(0.147171 -0.0037693 0)
(0.147706 -0.00340675 0)
(0.148226 -0.00299453 0)
(0.148737 -0.00252786 0)
(0.149242 -0.00200189 0)
(0.149747 -0.00141181 0)
(0.150262 -0.000753105 0)
(0.150795 -2.16683e-05 0)
(0.151357 0.000784581 0)
(0.151962 0.00166499 0)
(0.152625 0.00261713 0)
(0.153361 0.00363499 0)
(0.154186 0.00470802 0)
(0.155117 0.00582044 0)
(0.156167 0.00695088 0)
(0.157342 0.00807266 0)
(0.158642 0.0091553 0)
(0.160058 0.0101678 0)
(0.100007 -0.000249323 0)
(0.100129 -0.000501002 0)
(0.100325 -0.000729775 0)
(0.100585 -0.000943097 0)
(0.100906 -0.0011443 0)
(0.101283 -0.00133555 0)
(0.101711 -0.00151861 0)
(0.102184 -0.00169492 0)
(0.102699 -0.00186559 0)
(0.103254 -0.00203149 0)
(0.103843 -0.00219332 0)
(0.104466 -0.00235166 0)
(0.105119 -0.00250697 0)
(0.1058 -0.00265961 0)
(0.106508 -0.00280989 0)
(0.107238 -0.00295804 0)
(0.107992 -0.00310425 0)
(0.108765 -0.00324865 0)
(0.109557 -0.00339135 0)
(0.110366 -0.00353241 0)
(0.111191 -0.00367187 0)
(0.112031 -0.00380972 0)
(0.112883 -0.00394595 0)
(0.113747 -0.00408053 0)
(0.114622 -0.00421337 0)
(0.115505 -0.00434441 0)
(0.116397 -0.00447353 0)
(0.117296 -0.00460061 0)
(0.1182 -0.00472552 0)
(0.119109 -0.00484809 0)
(0.120022 -0.00496814 0)
(0.120937 -0.00508549 0)
(0.121854 -0.00519992 0)
(0.122771 -0.0053112 0)
(0.123688 -0.00541906 0)
(0.124604 -0.00552324 0)
(0.125517 -0.00562343 0)
(0.126427 -0.00571932 0)
(0.127332 -0.00581054 0)
(0.128232 -0.00589671 0)
(0.129126 -0.00597742 0)
(0.130013 -0.00605222 0)
(0.130891 -0.00612062 0)
(0.131761 -0.00618208 0)
(0.132622 -0.00623601 0)
(0.133471 -0.00628179 0)
(0.134309 -0.00631871 0)
(0.135135 -0.00634601 0)
(0.135947 -0.00636285 0)
(0.136746 -0.00636832 0)
(0.13753 -0.00636139 0)
(0.138299 -0.00634095 0)
(0.139052 -0.00630577 0)
(0.139788 -0.00625451 0)
(0.140508 -0.00618567 0)
(0.141209 -0.0060976 0)
(0.141893 -0.00598851 0)
(0.14256 -0.0058564 0)
(0.143208 -0.00569911 0)
(0.143839 -0.00551426 0)
(0.144452 -0.00529931 0)
(0.14505 -0.00505147 0)
(0.145633 -0.00476781 0)
(0.146204 -0.00444523 0)
(0.146764 -0.00408053 0)
(0.147318 -0.00367051 0)
(0.147868 -0.00321201 0)
(0.14842 -0.00270216 0)
(0.148981 -0.00213849 0)
(0.149557 -0.0015192 0)
(0.150156 -0.00084331 0)
(0.150789 -0.000110721 0)
(0.151465 0.000676278 0)
(0.152194 0.00151135 0)
(0.152986 0.0023872 0)
(0.153851 0.00329354 0)
(0.154796 0.00421703 0)
(0.155829 0.00514141 0)
(0.156949 0.00604823 0)
(0.158155 0.00691818 0)
(0.159436 0.00773334 0)
(0.100003 -0.000277327 0)
(0.100123 -0.000560123 0)
(0.100313 -0.000817932 0)
(0.100565 -0.00105871 0)
(0.100877 -0.0012861 0)
(0.101243 -0.00150236 0)
(0.10166 -0.00170942 0)
(0.102121 -0.00190883 0)
(0.102624 -0.00210183 0)
(0.103165 -0.00228939 0)
(0.103741 -0.0024723 0)
(0.104349 -0.00265121 0)
(0.104988 -0.00282662 0)
(0.105653 -0.00299895 0)
(0.106344 -0.00316854 0)
(0.107059 -0.00333567 0)
(0.107795 -0.00350053 0)
(0.108551 -0.00366328 0)
(0.109326 -0.00382403 0)
(0.110117 -0.00398286 0)
(0.110923 -0.00413981 0)
(0.111743 -0.00429488 0)
(0.112576 -0.00444804 0)
(0.11342 -0.00459925 0)
(0.114273 -0.00474845 0)
(0.115136 -0.00489552 0)
(0.116006 -0.00504036 0)
(0.116883 -0.00518282 0)
(0.117765 -0.00532276 0)
(0.118651 -0.00545999 0)
(0.119541 -0.00559431 0)
(0.120433 -0.00572551 0)
(0.121326 -0.00585334 0)
(0.122219 -0.00597756 0)
(0.123111 -0.00609788 0)
(0.124002 -0.00621398 0)
(0.12489 -0.00632556 0)
(0.125774 -0.00643223 0)
(0.126654 -0.00653363 0)
(0.127528 -0.00662933 0)
(0.128396 -0.00671889 0)
(0.129257 -0.00680182 0)
(0.13011 -0.0068776 0)
(0.130955 -0.00694565 0)
(0.131789 -0.00700536 0)
(0.132613 -0.00705606 0)
(0.133427 -0.00709702 0)
(0.134228 -0.00712745 0)
(0.135017 -0.00714649 0)
(0.135793 -0.00715322 0)
(0.136555 -0.00714661 0)
(0.137303 -0.00712556 0)
(0.138036 -0.00708887 0)
(0.138755 -0.00703522 0)
(0.139458 -0.00696322 0)
(0.140146 -0.00687132 0)
(0.140818 -0.00675788 0)
(0.141475 -0.00662111 0)
(0.142118 -0.00645914 0)
(0.142747 -0.00626996 0)
(0.143363 -0.00605144 0)
(0.143967 -0.00580143 0)
(0.144561 -0.00551769 0)
(0.145148 -0.005198 0)
(0.14573 -0.00484023 0)
(0.14631 -0.0044424 0)
(0.146892 -0.00400284 0)
(0.147482 -0.00352027 0)
(0.148084 -0.00299404 0)
(0.148704 -0.00242426 0)
(0.149349 -0.00181201 0)
(0.150025 -0.00115942 0)
(0.150741 -0.000469635 0)
(0.151504 0.00025313 0)
(0.152318 0.00100051 0)
(0.15319 0.00176245 0)
(0.154121 0.00252854 0)
(0.155115 0.00328706 0)
(0.15617 0.00402566 0)
(0.157281 0.00473217 0)
(0.158442 0.00539605 0)
(0.0999991 -0.000306168 0)
(0.100117 -0.000621111 0)
(0.100301 -0.000909145 0)
(0.100545 -0.00117858 0)
(0.100847 -0.00143334 0)
(0.101202 -0.00167583 0)
(0.101606 -0.00190805 0)
(0.102055 -0.0021317 0)
(0.102544 -0.00234814 0)
(0.103071 -0.00255844 0)
(0.103632 -0.00276347 0)
(0.104225 -0.00296393 0)
(0.104847 -0.0031604 0)
(0.105496 -0.00335335 0)
(0.106169 -0.00354316 0)
(0.106866 -0.00373011 0)
(0.107584 -0.00391444 0)
(0.108321 -0.00409632 0)
(0.109075 -0.00427589 0)
(0.109846 -0.00445321 0)
(0.110632 -0.00462834 0)
(0.111431 -0.00480127 0)
(0.112242 -0.00497199 0)
(0.113064 -0.00514044 0)
(0.113895 -0.00530653 0)
(0.114735 -0.00547016 0)
(0.115581 -0.00563121 0)
(0.116434 -0.00578951 0)
(0.117292 -0.00594489 0)
(0.118153 -0.00609717 0)
(0.119017 -0.0062461 0)
(0.119884 -0.00639147 0)
(0.120751 -0.006533 0)
(0.121617 -0.00667042 0)
(0.122483 -0.00680341 0)
(0.123347 -0.00693164 0)
(0.124208 -0.00705476 0)
(0.125065 -0.00717238 0)
(0.125917 -0.00728409 0)
(0.126764 -0.00738944 0)
(0.127604 -0.00748796 0)
(0.128438 -0.00757913 0)
(0.129263 -0.0076624 0)
(0.13008 -0.00773718 0)
(0.130888 -0.00780283 0)
(0.131685 -0.00785866 0)
(0.132472 -0.00790393 0)
(0.133248 -0.00793786 0)
(0.134012 -0.00795958 0)
(0.134764 -0.00796818 0)
(0.135503 -0.00796266 0)
(0.136229 -0.00794198 0)
(0.136942 -0.00790499 0)
(0.137642 -0.00785049 0)
(0.138329 -0.0077772 0)
(0.139002 -0.00768374 0)
(0.139662 -0.0075687 0)
(0.14031 -0.00743055 0)
(0.140947 -0.00726777 0)
(0.141572 -0.00707875 0)
(0.142189 -0.0068619 0)
(0.142797 -0.00661565 0)
(0.143399 -0.00633848 0)
(0.143998 -0.00602903 0)
(0.144595 -0.0056861 0)
(0.145195 -0.00530877 0)
(0.145801 -0.00489651 0)
(0.146416 -0.00444928 0)
(0.147045 -0.00396763 0)
(0.147692 -0.00345286 0)
(0.148363 -0.0029071 0)
(0.149062 -0.00233343 0)
(0.149793 -0.00173586 0)
(0.150562 -0.00111925 0)
(0.151372 -0.000488805 0)
(0.152227 0.000149154 0)
(0.153126 0.000786091 0)
(0.154069 0.00141198 0)
(0.155054 0.00201841 0)
(0.156076 0.00259774 0)
(0.15713 0.00314379 0)
(0.0999949 -0.000335845 0)
(0.100111 -0.000683921 0)
(0.100289 -0.00100332 0)
(0.100524 -0.00130256 0)
(0.100816 -0.00158587 0)
(0.10116 -0.00185573 0)
(0.101551 -0.00211426 0)
(0.101986 -0.00236327 0)
(0.102461 -0.00260423 0)
(0.102972 -0.00283831 0)
(0.103517 -0.00306647 0)
(0.104093 -0.00328947 0)
(0.104697 -0.00350794 0)
(0.105328 -0.00372241 0)
(0.105982 -0.00393328 0)
(0.106659 -0.00414089 0)
(0.107357 -0.00434548 0)
(0.108073 -0.00454726 0)
(0.108807 -0.00474635 0)
(0.109556 -0.00494285 0)
(0.110319 -0.00513681 0)
(0.111095 -0.00532823 0)
(0.111882 -0.00551708 0)
(0.11268 -0.0057033 0)
(0.113486 -0.0058868 0)
(0.114301 -0.00606747 0)
(0.115122 -0.00624515 0)
(0.115949 -0.0064197 0)
(0.11678 -0.0065909 0)
(0.117614 -0.00675854 0)
(0.118452 -0.0069224 0)
(0.11929 -0.0070822 0)
(0.120129 -0.00723767 0)
(0.120967 -0.00738849 0)
(0.121804 -0.00753433 0)
(0.122639 -0.00767485 0)
(0.123471 -0.00780965 0)
(0.124299 -0.00793833 0)
(0.125122 -0.00806045 0)
(0.125939 -0.00817555 0)
(0.12675 -0.00828313 0)
(0.127554 -0.00838266 0)
(0.128351 -0.00847357 0)
(0.129139 -0.00855525 0)
(0.129918 -0.00862706 0)
(0.130687 -0.00868832 0)
(0.131447 -0.00873829 0)
(0.132196 -0.00877619 0)
(0.132934 -0.0088012 0)
(0.133661 -0.00881245 0)
(0.134376 -0.00880901 0)
(0.13508 -0.0087899 0)
(0.135772 -0.00875409 0)
(0.136452 -0.00870052 0)
(0.137121 -0.00862807 0)
(0.137779 -0.00853559 0)
(0.138426 -0.00842191 0)
(0.139064 -0.00828583 0)
(0.139692 -0.00812618 0)
(0.140313 -0.00794182 0)
(0.140927 -0.00773165 0)
(0.141536 -0.00749467 0)
(0.142142 -0.00723004 0)
(0.142747 -0.00693708 0)
(0.143354 -0.0066154 0)
(0.143965 -0.00626489 0)
(0.144584 -0.00588585 0)
(0.145213 -0.00547903 0)
(0.145856 -0.00504572 0)
(0.146515 -0.00458779 0)
(0.147195 -0.00410778 0)
(0.147899 -0.00360889 0)
(0.148628 -0.00309499 0)
(0.149386 -0.00257057 0)
(0.150174 -0.00204067 0)
(0.150994 -0.00151059 0)
(0.151845 -0.000985629 0)
(0.152728 -0.000470185 0)
(0.153641 2.98905e-05 0)
(0.154578 0.000509273 0)
(0.155536 0.000963849 0)
(0.0999905 -0.000366343 0)
(0.100104 -0.000748487 0)
(0.100277 -0.00110033 0)
(0.100503 -0.00143049 0)
(0.100784 -0.00174345 0)
(0.101116 -0.0020418 0)
(0.101494 -0.00232773 0)
(0.101914 -0.00260318 0)
(0.102373 -0.0028697 0)
(0.102868 -0.00312858 0)
(0.103395 -0.00338083 0)
(0.103953 -0.00362729 0)
(0.104538 -0.00386867 0)
(0.105149 -0.00410551 0)
(0.105783 -0.00433828 0)
(0.106439 -0.00456732 0)
(0.107115 -0.00479293 0)
(0.107809 -0.00501531 0)
(0.108519 -0.0052346 0)
(0.109244 -0.00545092 0)
(0.109983 -0.0056643 0)
(0.110734 -0.00587476 0)
(0.111496 -0.00608226 0)
(0.112267 -0.00628675 0)
(0.113047 -0.00648811 0)
(0.113835 -0.00668622 0)
(0.114628 -0.00688093 0)
(0.115427 -0.00707205 0)
(0.11623 -0.00725937 0)
(0.117035 -0.00744266 0)
(0.117843 -0.00762167 0)
(0.118652 -0.00779612 0)
(0.11946 -0.00796569 0)
(0.120269 -0.00813007 0)