/*--------------------------------*- C++ -*----------------------------------*\
| =========                 |                                                 |
| \\      /  F ield         | OpenFOAM: The Open Source CFD Toolbox           |
|  \\    /   O peration     | Version:  2106                                  |
|   \\  /    A nd           | Website:  www.openfoam.com                      |
|    \\/     M anipulation  |                                                 |
\*---------------------------------------------------------------------------*/
FoamFile
{
    version     2.0;
    format      ascii;
    arch        "LSB;label=32;scalar=64";
    class       surfaceScalarField;
    location    "4.6";
    object      phi;
}
// * * * * * * * * * * * * * * * * * * * * * * * * * * * * * * * * * * * * * //

dimensions      [1 0 -1 0 0 0 0];

oriented        oriented;

internalField   nonuniform List<scalar> 
23692
(
9.31699e-05
-9.0454e-08
9.33336e-05
-1.63607e-07
9.35622e-05
-2.28587e-07
9.3848e-05
-2.85654e-07
9.41847e-05
-3.3666e-07
9.45676e-05
-3.82742e-07
9.49924e-05
-4.24659e-07
9.54556e-05
-4.63012e-07
9.59541e-05
-4.98271e-07
9.64851e-05
-5.30801e-07
9.70462e-05
-5.60908e-07
9.76353e-05
-5.88837e-07
9.82504e-05
-6.1479e-07
9.88896e-05
-6.38941e-07
9.95514e-05
-6.61428e-07
0.000100234
-6.82373e-07
0.000100936
-7.01875e-07
0.000101657
-7.20025e-07
0.000102394
-7.36889e-07
0.000103147
-7.52532e-07
0.000103914
-7.67007e-07
0.000104695
-7.80352e-07
0.000105488
-7.92614e-07
0.000106292
-8.03816e-07
0.000107106
-8.1399e-07
0.00010793
-8.23155e-07
0.000108762
-8.3133e-07
0.000109601
-8.38531e-07
0.000110446
-8.4477e-07
0.000111296
-8.50056e-07
0.000112151
-8.54396e-07
0.000113009
-8.57794e-07
0.00011387
-8.60253e-07
0.000114732
-8.61775e-07
0.000115595
-8.62355e-07
0.000116457
-8.61993e-07
0.000117318
-8.60682e-07
0.000118177
-8.58414e-07
0.000119033
-8.55178e-07
0.000119884
-8.50961e-07
0.00012073
-8.45746e-07
0.00012157
-8.39513e-07
0.000122402
-8.32236e-07
0.000123227
-8.23889e-07
0.000124041
-8.14435e-07
0.000124845
-8.03833e-07
0.000125638
-7.92035e-07
0.000126417
-7.78984e-07
0.000127182
-7.64613e-07
0.000127931
-7.48843e-07
0.000128663
-7.3158e-07
0.000129376
-7.12714e-07
0.000130068
-6.92117e-07
0.000130738
-6.69635e-07
0.000131383
-6.45086e-07
0.000132002
-6.18253e-07
0.000132591
-5.88879e-07
0.000133148
-5.5665e-07
0.000133669
-5.21191e-07
0.000134151
-4.82043e-07
0.00013459
-4.38645e-07
0.000134981
-3.90303e-07
0.000135317
-3.36152e-07
0.000135592
-2.75104e-07
0.000135798
-2.05774e-07
0.000135925
-1.26378e-07
0.000135959
-3.45947e-08
0.000135887
7.2689e-08
0.000135687
1.99743e-07
0.000135335
3.5249e-07
0.000134795
5.39323e-07
0.000134023
7.72433e-07
0.000132953
1.07001e-06
0.000131493
1.46e-06
0.000129507
1.98654e-06
0.000126786
2.72131e-06
0.000123002
3.78338e-06
0.000117627
5.37585e-06
0.000109756
7.87078e-06
9.77298e-05
1.20261e-05
1.99985e-05
7.77314e-05
9.96934e-05
-1.84863e-07
9.98676e-05
-3.37699e-07
0.000100111
-4.72412e-07
0.000100416
-5.90505e-07
0.000100776
-6.96097e-07
0.000101185
-7.9148e-07
0.000101639
-8.78231e-07
0.000102133
-9.57601e-07
0.000102666
-1.03056e-06
0.000103233
-1.09787e-06
0.000103833
-1.16016e-06
0.000104462
-1.21793e-06
0.000105119
-1.27162e-06
0.000105802
-1.32157e-06
0.000106509
-1.36808e-06
0.000107238
-1.41139e-06
0.000107989
-1.45172e-06
0.000108758
-1.48924e-06
0.000109546
-1.5241e-06
0.00011035
-1.55644e-06
0.00011117
-1.58635e-06
0.000112004
-1.61393e-06
0.000112851
-1.63925e-06
0.00011371
-1.66239e-06
0.00011458
-1.6834e-06
0.000115459
-1.70232e-06
0.000116348
-1.71918e-06
0.000117243
-1.73403e-06
0.000118146
-1.74689e-06
0.000119054
-1.75778e-06
0.000119967
-1.7667e-06
0.000120883
-1.77368e-06
0.000121802
-1.77871e-06
0.000122722
-1.7818e-06
0.000123643
-1.78295e-06
0.000124564
-1.78214e-06
0.000125483
-1.77936e-06
0.0001264
-1.77461e-06
0.000127313
-1.76786e-06
0.000128221
-1.75907e-06
0.000129124
-1.74822e-06
0.00013002
-1.73527e-06
0.000130908
-1.72016e-06
0.000131788
-1.70283e-06
0.000132657
-1.68322e-06
0.000133515
-1.66123e-06
0.00013436
-1.63678e-06
0.000135191
-1.60974e-06
0.000136006
-1.57998e-06
0.000136805
-1.54733e-06
0.000137585
-1.5116e-06
0.000138346
-1.47258e-06
0.000139084
-1.42999e-06
0.000139798
-1.38352e-06
0.000140486
-1.33281e-06
0.000141145
-1.27741e-06
0.000141773
-1.2168e-06
0.000142367
-1.15035e-06
0.000142923
-1.0773e-06
0.000143438
-9.96721e-07
0.000143907
-9.07485e-07
0.000144325
-8.08204e-07
0.000144687
-6.9715e-07
0.000144984
-5.72158e-07
0.000145209
-4.30486e-07
0.000145351
-2.68625e-07
0.000145399
-8.20268e-08
0.000145336
1.353e-07
0.000145145
3.91477e-07
0.000144799
6.97632e-07
0.00014427
1.06923e-06
0.000143514
1.52824e-06
0.000142478
2.10647e-06
0.000141087
2.85092e-06
0.000139241
3.83232e-06
0.000136804
5.15827e-06
0.000133596
6.99215e-06
0.000129394
9.57743e-06
0.000123996
1.32687e-05
0.000117534
1.84888e-05
2.5017e-05
0.000112515
0.000106673
-2.82676e-07
0.000106857
-5.22058e-07
0.000107116
-7.31294e-07
0.000107441
-9.14826e-07
0.000107824
-1.07886e-06
0.000108259
-1.22699e-06
0.000108743
-1.36169e-06
0.000109271
-1.4849e-06
0.000109838
-1.59815e-06
0.000110443
-1.70261e-06
0.000111083
-1.79926e-06
0.000111754
-1.8889e-06
0.000112455
-1.97219e-06
0.000113183
-2.04966e-06
0.000113937
-2.12178e-06
0.000114715
-2.18894e-06
0.000115515
-2.25146e-06
0.000116336
-2.30961e-06
0.000117176
-2.36363e-06
0.000118034
-2.41372e-06
0.000118908
-2.46004e-06
0.000119797
-2.50274e-06
0.0001207
-2.54193e-06
0.000121616
-2.57773e-06
0.000122543
-2.61021e-06
0.000123481
-2.63944e-06
0.000124428
-2.66549e-06
0.000125382
-2.68841e-06
0.000126344
-2.70823e-06
0.000127312
-2.72498e-06
0.000128284
-2.73869e-06
0.00012926
-2.74937e-06
0.000130239
-2.75703e-06
0.00013122
-2.76167e-06
0.0001322
-2.76329e-06
0.00013318
-2.76188e-06
0.000134159
-2.75742e-06
0.000135135
-2.74988e-06
0.000136106
-2.73924e-06
0.000137073
-2.72545e-06
0.000138034
-2.70845e-06
0.000138987
-2.68819e-06
0.000139932
-2.66459e-06
0.000140867
-2.63755e-06
0.000141791
-2.60697e-06
0.000142703
-2.57273e-06
0.000143601
-2.53466e-06
0.000144484
-2.49259e-06
0.000145351
-2.44632e-06
0.0001462
-2.39559e-06
0.000147028
-2.34011e-06
0.000147836
-2.27956e-06
0.000148619
-2.21352e-06
0.000149378
-2.14152e-06
0.000150108
-2.06302e-06
0.000150808
-1.97733e-06
0.000151475
-1.88368e-06
0.000152106
-1.78112e-06
0.000152698
-1.6685e-06
0.000153246
-1.54447e-06
0.000153746
-1.40734e-06
0.000154193
-1.25506e-06
0.000154581
-1.08511e-06
0.000154903
-8.94322e-07
0.000155152
-6.78747e-07
0.000155317
-4.33355e-07
0.000155386
-1.51711e-07
0.000155347
1.74506e-07
0.000155183
5.56321e-07
0.000154872
1.00854e-06
0.00015439
1.55121e-06
0.000153707
2.21176e-06
0.000152785
3.02825e-06
0.000151582
4.05386e-06
0.000150051
5.36312e-06
0.00014815
7.05943e-06
0.000145861
9.28148e-06
0.000143238
1.22004e-05
0.000140522
1.59848e-05
0.000138375
2.06358e-05
2.54183e-05
0.000137974
0.000114141
-3.8365e-07
0.000114335
-7.16221e-07
0.000114609
-1.00508e-06
0.000114953
-1.25874e-06
0.00011536
-1.48534e-06
0.000115823
-1.6899e-06
0.000116337
-1.87586e-06
0.000116898
-2.04592e-06
0.000117503
-2.20219e-06
0.000118147
-2.34631e-06
0.000118827
-2.47963e-06
0.000119542
-2.60324e-06
0.000120288
-2.71807e-06
0.000121064
-2.82485e-06
0.000121866
-2.92424e-06
0.000122695
-3.01676e-06
0.000123547
-3.10287e-06
0.00012442
-3.18294e-06
0.000125314
-3.25729e-06
0.000126227
-3.32621e-06
0.000127158
-3.38992e-06
0.000128104
-3.44863e-06
0.000129065
-3.50249e-06
0.000130039
-3.55164e-06
0.000131026
-3.59622e-06
0.000132023
-3.6363e-06
0.00013303
-3.67199e-06
0.000134046
-3.70334e-06
0.000135068
-3.73041e-06
0.000136097
-3.75325e-06
0.000137131
-3.77187e-06
0.000138168
-3.78632e-06
0.000139208
-3.79659e-06
0.00014025
-3.80269e-06
0.000141292
-3.80463e-06
0.000142332
-3.80237e-06
0.000143371
-3.79591e-06
0.000144407
-3.7852e-06
0.000145439
-3.77021e-06
0.000146464
-3.75087e-06
0.000147484
-3.72712e-06
0.000148495
-3.69887e-06
0.000149496
-3.66602e-06
0.000150488
-3.62845e-06
0.000151467
-3.586e-06
0.000152433
-3.53851e-06
0.000153385
-3.48577e-06
0.00015432
-3.42755e-06
0.000155238
-3.36357e-06
0.000156136
-3.29349e-06
0.000157013
-3.21692e-06
0.000157867
-3.13342e-06
0.000158696
-3.04246e-06
0.000159499
-2.9434e-06
0.000160271
-2.8355e-06
0.000161012
-2.7179e-06
0.000161718
-2.58954e-06
0.000162387
-2.4492e-06
0.000163014
-2.29538e-06
0.000163596
-2.12631e-06
0.000164128
-1.93983e-06
0.000164607
-1.73332e-06
0.000165026
-1.50357e-06
0.000165378
-1.24661e-06
0.000165657
-9.57527e-07
0.000165854
-6.3016e-07
0.000165959
-2.56754e-07
0.000165961
1.72486e-07
0.000165848
6.70136e-07
0.000165604
1.25261e-06
0.000165214
1.94133e-06
0.000164661
2.76433e-06
0.000163931
3.75833e-06
0.000163014
4.97114e-06
0.000161913
6.46403e-06
0.00016066
8.31258e-06
0.000159339
1.06025e-05
0.000158128
1.3412e-05
0.00015735
1.67625e-05
0.00015749
2.0496e-05
2.40213e-05
0.000158887
0.000122132
-4.87677e-07
0.000122335
-9.198e-07
0.000122624
-1.29356e-06
0.000122987
-1.62224e-06
0.000123418
-1.91579e-06
0.000123909
-2.18068e-06
0.000124455
-2.42141e-06
0.00012505
-2.6415e-06
0.000125692
-2.84367e-06
0.000126376
-3.03008e-06
0.000127099
-3.20247e-06
0.000127859
-3.36227e-06
0.000128652
-3.51066e-06
0.000129476
-3.64863e-06
0.000130329
-3.77699e-06
0.000131209
-3.89644e-06
0.000132114
-4.00757e-06
0.000133043
-4.11086e-06
0.000133993
-4.20675e-06
0.000134962
-4.29558e-06
0.000135951
-4.37765e-06
0.000136956
-4.45323e-06
0.000137976
-4.52253e-06
0.000139011
-4.58572e-06
0.000140058
-4.64297e-06
0.000141117
-4.69441e-06
0.000142185
-4.74014e-06
0.000143263
-4.78025e-06
0.000144348
-4.81481e-06
0.000145439
-4.84387e-06
0.000146535
-4.86749e-06
0.000147635
-4.88568e-06
0.000148737
-4.89847e-06
0.000149841
-4.90587e-06
0.000150945
-4.90786e-06
0.000152047
-4.90444e-06
0.000153147
-4.89556e-06
0.000154244
-4.8812e-06
0.000155335
-4.8613e-06
0.000156421
-4.83579e-06
0.000157499
-4.80457e-06
0.000158568
-4.76755e-06
0.000159627
-4.7246e-06
0.000160674
-4.67555e-06
0.000161709
-4.62024e-06
0.000162729
-4.55844e-06
0.000163734
-4.48991e-06
0.000164721
-4.41434e-06
0.000165689
-4.33138e-06
0.000166637
-4.24064e-06
0.000167562
-4.14162e-06
0.000168462
-4.03377e-06
0.000169337
-3.91644e-06
0.000170182
-3.78885e-06
0.000170997
-3.6501e-06
0.000171779
-3.49912e-06
0.000172524
-3.33467e-06
0.000173231
-3.15523e-06
0.000173894
-2.95905e-06
0.000174512
-2.74401e-06
0.00017508
-2.50757e-06
0.000175594
-2.24668e-06
0.000176048
-1.95763e-06
0.000176438
-1.63593e-06
0.000176756
-1.27607e-06
0.000176998
-8.7129e-07
0.000177154
-4.13256e-07
0.000177219
1.08268e-07
0.000177183
7.05926e-07
0.00017704
1.39549e-06
0.000176785
2.19677e-06
0.000176415
3.13423e-06
0.000175936
4.23774e-06
0.000175364
5.54288e-06
0.000174738
7.09031e-06
0.000174128
8.92262e-06
0.000173655
1.10762e-05
0.000173504
1.35631e-05
0.000173931
1.63355e-05
0.000175205
1.92218e-05
2.18383e-05
0.000177388
0.000130682
-5.94751e-07
0.000130894
-1.13249e-06
0.000131197
-1.5965e-06
0.00013158
-2.00523e-06
0.000132035
-2.37029e-06
0.000132554
-2.69961e-06
0.000133132
-2.99882e-06
0.000133763
-3.27228e-06
0.000134443
-3.5234e-06
0.000135168
-3.75486e-06
0.000135935
-3.96885e-06
0.00013674
-4.16713e-06
0.000137581
-4.35119e-06
0.000138455
-4.52225e-06
0.00013936
-4.68135e-06
0.000140293
-4.82933e-06
0.000141253
-4.96694e-06
0.000142237
-5.09479e-06
0.000143244
-5.2134e-06
0.000144273
-5.32322e-06
0.00014532
-5.42462e-06
0.000146385
-5.51793e-06
0.000147467
-5.6034e-06
0.000148563
-5.68128e-06
0.000149672
-5.75176e-06
0.000150793
-5.81499e-06
0.000151925
-5.87111e-06
0.000153065
-5.92023e-06
0.000154214
-5.96245e-06
0.000155368
-5.99783e-06
0.000156528
-6.02642e-06
0.000157691
-6.04827e-06
0.000158856
-6.06341e-06
0.000160023
-6.07183e-06
0.000161189
-6.07354e-06
0.000162353
-6.06851e-06
0.000163515
-6.05673e-06
0.000164673
-6.03813e-06
0.000165824
-6.01267e-06
0.000166969
-5.98024e-06
0.000168106
-5.94075e-06
0.000169233
-5.89408e-06
0.000170349
-5.84008e-06
0.000171452
-5.77855e-06
0.000172542
-5.7093e-06
0.000173616
-5.63205e-06
0.000174673
-5.54652e-06
0.000175711
-5.45236e-06
0.00017673
-5.34915e-06
0.000177726
-5.23642e-06
0.000178698
-5.11361e-06
0.000179645
-4.98006e-06
0.000180564
-4.83501e-06
0.000181453
-4.67758e-06
0.00018231
-4.50672e-06
0.000183132
-4.32122e-06
0.000183917
-4.11965e-06
0.000184663
-3.90033e-06
0.000185365
-3.66127e-06
0.000186021
-3.40013e-06
0.000186628
-3.11415e-06
0.000187182
-2.80002e-06
0.000187678
-2.45382e-06
0.000188113
-2.07083e-06
0.000188483
-1.64542e-06
0.000188783
-1.17084e-06
0.000189009
-6.3896e-07
0.000189157
-4.0193e-08
0.000189226
6.3697e-07
0.000189216
1.40564e-06
0.000189131
2.28188e-06
0.000188982
3.28404e-06
0.000188787
4.43254e-06
0.000188581
5.74896e-06
0.000188418
7.25389e-06
0.000188378
8.96287e-06
0.000188575
1.0879e-05
0.000189158
1.29803e-05
0.000190292
1.5201e-05
0.000192109
1.74052e-05
1.93662e-05
0.000194581
0.00013983
-7.04948e-07
0.000140052
-1.35405e-06
0.000140369
-1.91372e-06
0.000140772
-2.40757e-06
0.00014125
-2.84885e-06
0.000141798
-3.24686e-06
0.000142408
-3.6084e-06
0.000143074
-3.93873e-06
0.000143793
-4.24196e-06
0.00014456
-4.52136e-06
0.000145371
-4.77956e-06
0.000146223
-5.01872e-06
0.000147113
-5.24062e-06
0.000148038
-5.44676e-06
0.000148995
-5.63839e-06
0.000149983
-5.81655e-06
0.000150999
-5.98212e-06
0.00015204
-6.13586e-06
0.000153106
-6.2784e-06
0.000154193
-6.41027e-06
0.000155301
-6.53194e-06
0.000156428
-6.6438e-06
0.000157571
-6.74616e-06
0.00015873
-6.83932e-06
0.000159902
-6.92351e-06
0.000161087
-6.99892e-06
0.000162282
-7.06572e-06
0.000163486
-7.12405e-06
0.000164698
-7.17401e-06
0.000165917
-7.2157e-06
0.00016714
-7.24918e-06
0.000168367
-7.27451e-06
0.000169596
-7.29171e-06
0.000170825
-7.3008e-06
0.000172054
-7.30179e-06
0.000173281
-7.29464e-06
0.000174504
-7.27934e-06
0.000175722
-7.25582e-06
0.000176934
-7.22403e-06
0.000178138
-7.18386e-06
0.000179333
-7.1352e-06
0.000180518
-7.07791e-06
0.00018169
-7.01182e-06
0.000182849
-6.93673e-06
0.000183992
-6.85238e-06
0.000185119
-6.75851e-06
0.000186228
-6.65476e-06
0.000187317
-6.54074e-06
0.000188384
-6.41601e-06
0.000189428
-6.28001e-06
0.000190447
-6.13213e-06
0.000191439
-5.97165e-06
0.000192402
-5.79772e-06
0.000193334
-5.60936e-06
0.000194233
-5.40545e-06
0.000195097
-5.18467e-06
0.000195923
-4.94547e-06
0.000196709
-4.68608e-06
0.000197452
-4.40442e-06
0.00019815
-4.09804e-06
0.000198801
-3.76412e-06
0.0001994
-3.39934e-06
0.000199947
-2.99982e-06
0.000200437
-2.56102e-06
0.000200869
-2.07764e-06
0.000201242
-1.54352e-06
0.000201555
-9.51516e-07
0.000201808
-2.93443e-07
0.000202006
4.39865e-07
0.000202153
1.25813e-06
0.000202263
2.17232e-06
0.000202353
3.1939e-06
0.000202452
4.33396e-06
0.000202599
5.60179e-06
0.000202851
7.00272e-06
0.000203279
8.53471e-06
0.000203975
1.01835e-05
0.000205039
1.1916e-05
0.000206568
1.36724e-05
0.000208615
1.53587e-05
1.68478e-05
0.000211133
0.00014962
-8.18396e-07
0.00014985
-1.58433e-06
0.000150181
-2.24501e-06
0.000150603
-2.82906e-06
0.000151106
-3.35135e-06
0.000151681
-3.82243e-06
0.000152323
-4.25028e-06
0.000153026
-4.6411e-06
0.000153784
-4.99973e-06
0.000154593
-5.33005e-06
0.000155449
-5.63517e-06
0.000156349
-5.91767e-06
0.000157288
-6.17966e-06
0.000158265
-6.42291e-06
0.000159276
-6.64891e-06
0.000160319
-6.8589e-06
0.000161391
-7.05393e-06
0.000162491
-7.23489e-06
0.000163615
-7.40254e-06
0.000164763
-7.55751e-06
0.000165932
-7.70037e-06
0.00016712
-7.83155e-06
0.000168326
-7.95147e-06
0.000169548
-8.06046e-06
0.000170784
-8.15879e-06
0.000172032
-8.2467e-06
0.000173292
-8.32439e-06
0.00017456
-8.39203e-06
0.000175837
-8.44975e-06
0.000177119
-8.49766e-06
0.000178407
-8.53584e-06
0.000179697
-8.56436e-06
0.000180989
-8.58326e-06
0.000182282
-8.59256e-06
0.000183573
-8.59227e-06
0.000184861
-8.58238e-06
0.000186145
-8.56285e-06
0.000187424
-8.53364e-06
0.000188695
-8.49466e-06
0.000189957
-8.44582e-06
0.00019121
-8.387e-06
0.00019245
-8.31805e-06
0.000193678
-8.23877e-06
0.000194891
-8.14896e-06
0.000196087
-8.04835e-06
0.000197266
-7.93662e-06
0.000198425
-7.81342e-06
0.000199563
-7.67833e-06
0.000200678
-7.53084e-06
0.000201769
-7.37039e-06
0.000202834
-7.19631e-06
0.00020387
-7.00785e-06
0.000204877
-6.80411e-06
0.000205852
-6.58407e-06
0.000206794
-6.34656e-06
0.000207699
-6.09022e-06
0.000208568
-5.81351e-06
0.000209397
-5.51462e-06
0.000210184
-5.1915e-06
0.000210928
-4.84178e-06
0.000211627
-4.46276e-06
0.000212279
-4.05133e-06
0.000212884
-3.60396e-06
0.000213439
-3.11661e-06
0.000213947
-2.58476e-06
0.000214407
-2.00331e-06
0.000214822
-1.36663e-06
0.000215198
-6.68605e-07
0.00021554
9.72948e-08
0.000215861
9.37202e-07
0.000216177
1.85672e-06
0.00021651
2.86114e-06
0.00021689
3.95391e-06
0.000217357
5.1355e-06
0.000217958
6.40168e-06
0.000218751
7.74147e-06
0.0002198
9.1346e-06
0.000221168
1.05489e-05
0.000222902
1.19382e-05
0.000225019
1.3242e-05
1.43906e-05
0.000227476
0.000160094
-9.35233e-07
0.000160333
-1.82319e-06
0.000160679
-2.59022e-06
0.000161119
-3.26951e-06
0.000161646
-3.87759e-06
0.00016225
-4.4262e-06
0.000162924
-4.92443e-06
0.000163663
-5.37943e-06
0.00016446
-5.79685e-06
0.000165312
-6.18115e-06
0.000166213
-6.53598e-06
0.00016716
-6.86434e-06
0.000168149
-7.16869e-06
0.000169178
-7.45112e-06
0.000170243
-7.71335e-06
0.000171342
-7.95683e-06
0.000172471
-8.18281e-06
0.000173629
-8.39231e-06
0.000174813
-8.58624e-06
0.000176022
-8.76533e-06
0.000177252
-8.93024e-06
0.000178503
-9.0815e-06
0.000179772
-9.21958e-06
0.000181057
-9.34487e-06
0.000182356
-9.4577e-06
0.000183669
-9.55835e-06
0.000184992
-9.64707e-06
0.000186325
-9.72404e-06
0.000187665
-9.78943e-06
0.000189011
-9.84337e-06
0.000190362
-9.88596e-06
0.000191716
-9.91729e-06
0.000193071
-9.93741e-06
0.000194425
-9.94636e-06
0.000195778
-9.94416e-06
0.000197127
-9.93079e-06
0.000198471
-9.90623e-06
0.000199808
-9.87043e-06
0.000201138
-9.82332e-06
0.000202457
-9.76481e-06
0.000203765
-9.69476e-06
0.000205061
-9.61303e-06
0.000206342
-9.51942e-06
0.000207608
-9.41371e-06
0.000208855
-9.29563e-06
0.000210084
-9.16485e-06
0.000211292
-9.02101e-06
0.000212478
-8.86366e-06
0.00021364
-8.69231e-06
0.000214776
-8.50636e-06
0.000215886
-8.30516e-06
0.000216966
-8.08791e-06
0.000218016
-7.85375e-06
0.000219034
-7.60166e-06
0.000220019
-7.33048e-06
0.000220968
-7.03891e-06
0.00022188
-6.72546e-06
0.000222754
-6.38843e-06
0.000223589
-6.02593e-06
0.000224383
-5.63582e-06
0.000225136
-5.2157e-06
0.000225848
-4.7629e-06
0.000226519
-4.27447e-06
0.00022715
-3.74718e-06
0.000227743
-3.17755e-06
0.000228302
-2.56187e-06
0.000228832
-1.89633e-06
0.00022934
-1.17708e-06
0.000229838
-4.00379e-07
0.000230339
4.36881e-07
0.00023086
1.336e-06
0.000231424
2.29714e-06
0.000232059
3.31854e-06
0.0002328
4.39536e-06
0.000233683
5.51873e-06
0.00023475
6.67474e-06
0.000236041
7.84349e-06
0.000237592
8.99857e-06
0.000239423
1.01072e-05
0.000241533
1.11322e-05
1.20354e-05
0.000243888
0.000171303
-1.05561e-06
0.00017155
-2.07053e-06
0.000171909
-2.94917e-06
0.000172368
-3.72866e-06
0.000172918
-4.42731e-06
0.00017355
-5.05789e-06
0.000174257
-5.63061e-06
0.000175031
-6.15357e-06
0.000175868
-6.63318e-06
0.000176762
-7.07458e-06
0.000177708
-7.48195e-06
0.000178703
-7.85872e-06
0.000179742
-8.20776e-06
0.000180823
-8.53144e-06
0.000181942
-8.83176e-06
0.000183096
-9.1104e-06
0.000184283
-9.3688e-06
0.0001855
-9.60815e-06
0.000186743
-9.82948e-06
0.000188012
-1.00337e-05
0.000189304
-1.02214e-05
0.000190617
-1.03934e-05
0.000191948
-1.05502e-05
0.000193296
-1.06922e-05
0.000194659
-1.08198e-05
0.000196035
-1.09334e-05
0.000197422
-1.10331e-05
0.000198818
-1.11194e-05
0.000200221
-1.11922e-05
0.000201631
-1.12519e-05
0.000203044
-1.12985e-05
0.00020446
-1.13322e-05
0.000205876
-1.1353e-05
0.000207291
-1.13609e-05
0.000208704
-1.1356e-05
0.000210112
-1.13383e-05
0.000211514
-1.13078e-05
0.000212909
-1.12645e-05
0.000214295
-1.12082e-05
0.000215669
-1.1139e-05
0.000217032
-1.10566e-05
0.00021838
-1.09609e-05
0.000219713
-1.08518e-05
0.000221029
-1.0729e-05
0.000222326
-1.05923e-05
0.000223603
-1.04413e-05
0.000224858
-1.02757e-05
0.00022609
-1.0095e-05
0.000227297
-9.89882e-06
0.000228478
-9.68655e-06
0.000229631
-9.45753e-06
0.000230755
-9.21103e-06
0.000231847
-8.94622e-06
0.000232908
-8.66217e-06
0.000233936
-8.35779e-06
0.00023493
-8.03192e-06
0.000235888
-7.68322e-06
0.00023681
-7.31022e-06
0.000237696
-6.91129e-06
0.000238545
-6.48467e-06
0.000239358
-6.02843e-06
0.000240136
-5.54049e-06
0.00024088
-5.01868e-06
0.000241594
-4.46074e-06
0.000242281
-3.8644e-06
0.000242947
-3.22744e-06
0.000243599
-2.54785e-06
0.000244246
-1.82396e-06
0.0002449
-1.0546e-06
0.000245577
-2.39136e-07
0.000246292
6.21349e-07
0.000247065
1.52337e-06
0.000247922
2.46196e-06
0.000248888
3.42986e-06
0.00024999
4.41692e-06
0.000251255
5.40972e-06
0.000252707
6.39154e-06
0.000254363
7.3426e-06
0.00025623
8.24088e-06
0.000258298
9.06377e-06
9.79087e-06
0.000260543
0.000183296
-1.17963e-06
0.000183551
-2.32625e-06
0.000183924
-3.32164e-06
0.000184402
-4.20622e-06
0.000184975
-5.00011e-06
0.000185634
-5.7171e-06
0.000186372
-6.3684e-06
0.000187182
-6.96307e-06
0.000188058
-7.50833e-06
0.000188993
-8.00996e-06
0.000189985
-8.4727e-06
0.000191027
-8.90046e-06
0.000192116
-9.29648e-06
0.000193249
-9.66348e-06
0.000194421
-1.00037e-05
0.000195631
-1.03192e-05
0.000196874
-1.06114e-05
0.000198149
-1.08819e-05
0.000199451
-1.11317e-05
0.00020078
-1.13619e-05
0.000202133
-1.15733e-05
0.000203507
-1.17666e-05
0.0002049
-1.19425e-05
0.00020631
-1.21016e-05
0.000207735
-1.22441e-05
0.000209173
-1.23706e-05
0.000210622
-1.24814e-05
0.00021208
-1.25767e-05
0.000213546
-1.26567e-05
0.000215016
-1.27218e-05
0.00021649
-1.27719e-05
0.000217966
-1.28073e-05
0.000219442
-1.2828e-05
0.000220916
-1.28341e-05
0.000222386
-1.28257e-05
0.000223852
-1.28028e-05
0.00022531
-1.27654e-05
0.00022676
-1.27134e-05
0.000228199
-1.26469e-05
0.000229627
-1.25658e-05
0.000231041
-1.24699e-05
0.00023244
-1.23591e-05
0.000233822
-1.22333e-05
0.000235186
-1.20923e-05
0.00023653
-1.19358e-05
0.000237853
-1.17635e-05
0.000239153
-1.15751e-05
0.000240429
-1.13703e-05
0.000241679
-1.11485e-05
0.000242902
-1.09093e-05
0.000244097
-1.06521e-05
0.000245263
-1.03763e-05
0.000246398
-1.0081e-05
0.000247502
-9.76559e-06
0.000248574
-9.42905e-06
0.000249613
-9.07043e-06
0.000250619
-8.68865e-06
0.000251592
-8.28255e-06
0.000252531
-7.85089e-06
0.00025344
-7.39238e-06
0.000254317
-6.90566e-06
0.000255166
-6.38938e-06
0.00025599
-5.84221e-06
0.000256793
-5.26291e-06
0.000257579
-4.65041e-06
0.000258356
-4.00391e-06
0.000259131
-3.32299e-06
0.000259915
-2.60778e-06
0.00026072
-1.8591e-06
0.00026156
-1.07852e-06
0.00026245
-2.68321e-07
0.000263406
5.671e-07
0.000264447
1.4211e-06
0.000265592
2.28545e-06
0.000266858
3.1507e-06
0.000268263
4.00548e-06
0.000269818
4.83689e-06
0.000271529
5.63095e-06
0.000273397
6.37334e-06
0.00027541
7.05062e-06
7.65192e-06
0.000277549
0.000196128
-1.30736e-06
0.000196392
-2.59018e-06
0.000196778
-3.70732e-06
0.000197274
-4.70175e-06
0.000197869
-5.59548e-06
0.000198556
-6.40321e-06
0.000199325
-7.13713e-06
0.000200169
-7.80724e-06
0.000201083
-8.42154e-06
0.00020206
-8.98651e-06
0.000203095
-9.50744e-06
0.000204184
-9.98871e-06
0.000205322
-1.0434e-05
0.000206506
-1.08464e-05
0.000207731
-1.12284e-05
0.000208995
-1.15822e-05
0.000210294
-1.19097e-05
0.000211625
-1.22124e-05
0.000212986
-1.24917e-05
0.000214373
-1.27487e-05
0.000215785
-1.29844e-05
0.000217219
-1.31996e-05
0.000218672
-1.3395e-05
0.000220143
-1.35712e-05
0.000221628
-1.37288e-05
0.000223127
-1.38682e-05
0.000224636
-1.39898e-05
0.000226154
-1.40939e-05
0.000227679
-1.41807e-05
0.000229208
-1.42505e-05
0.000230741
-1.43036e-05
0.000232275
-1.434e-05
0.000233807
-1.43598e-05
0.000235337
-1.43633e-05
0.000236863
-1.43504e-05
0.000238382
-1.43213e-05
0.000239893
-1.42759e-05
0.000241395
-1.42142e-05
0.000242885
-1.41363e-05
0.000244362
-1.40421e-05
0.000245825
-1.39316e-05
0.000247271
-1.38045e-05
0.000248699
-1.36609e-05
0.000250108
-1.35005e-05
0.000251496
-1.33232e-05
0.000252862
-1.31287e-05
0.000254204
-1.29167e-05
0.000255522
-1.2687e-05
0.000256813
-1.24392e-05
0.000258077
-1.21728e-05
0.000259313
-1.18874e-05
0.000260519
-1.15825e-05
0.000261696
-1.12574e-05
0.000262843
-1.09117e-05
0.000263959
-1.05446e-05
0.000265044
-1.01553e-05
0.000266099
-9.74321e-06
0.000267125
-9.30747e-06
0.000268122
-8.84731e-06
0.000269092
-8.36197e-06
0.000270037
-7.85073e-06
0.000270961
-7.31297e-06
0.000271867
-6.74821e-06
0.000272761
-6.15617e-06
0.000273648
-5.53684e-06
0.000274535
-4.89059e-06
0.00027543
-4.21828e-06
0.000276344
-3.52134e-06
0.000277287
-2.80187e-06
0.000278272
-2.06277e-06
0.000279311
-1.30767e-06
0.000280419
-5.40723e-07
0.000281608
2.32329e-07
0.00028289
1.00391e-06
0.000284276
1.76529e-06
0.000285774
2.50736e-06
0.000287391
3.22081e-06
0.000289126
3.89606e-06
0.000290975
4.52405e-06
0.000292929
5.09694e-06
5.60912e-06
0.000294972
0.000209859
-1.43881e-06
0.000210131
-2.86213e-06
0.00021053
-4.10579e-06
0.000211043
-5.21469e-06
0.000211661
-6.21266e-06
0.000212373
-7.11536e-06
0.000213172
-7.93585e-06
0.00021405
-8.68502e-06
0.000215001
-9.3717e-06
0.000216018
-1.0003e-05
0.000217096
-1.05849e-05
0.00021823
-1.11222e-05
0.000219416
-1.16189e-05
0.000220648
-1.20786e-05
0.000221925
-1.2504e-05
0.000223241
-1.28978e-05
0.000224594
-1.32618e-05
0.00022598
-1.35979e-05
0.000227397
-1.39076e-05
0.000228841
-1.41921e-05
0.00023031
-1.44526e-05
0.000231802
-1.469e-05
0.000233313
-1.49052e-05
0.000234841
-1.50988e-05
0.000236385
-1.52714e-05
0.000237941
-1.54235e-05
0.000239507
-1.55555e-05
0.000241082
-1.56679e-05
0.000242664
-1.5761e-05
0.000244249
-1.58351e-05
0.000245837
-1.58903e-05
0.000247424
-1.59268e-05
0.00024901
-1.5945e-05
0.000250593
-1.59448e-05
0.00025217
-1.59264e-05
0.000253739
-1.58899e-05
0.0002553
-1.58354e-05
0.000256849
-1.57629e-05
0.000258386
-1.56725e-05
0.000259909
-1.5564e-05
0.000261416
-1.54376e-05
0.000262905
-1.52932e-05
0.000264376
-1.51307e-05
0.000265826
-1.495e-05
0.000267255
-1.47509e-05
0.00026866
-1.45334e-05
0.000270041
-1.42973e-05
0.000271397
-1.40423e-05
0.000272727
-1.37681e-05
0.000274029
-1.34746e-05
0.000275304
-1.31613e-05
0.00027655
-1.2828e-05
0.000277767
-1.24743e-05
0.000278956
-1.20998e-05
0.000280116
-1.17041e-05
0.000281248
-1.12868e-05
0.000282353
-1.08476e-05
0.000283432
-1.0386e-05
0.000284487
-9.90186e-06
0.00028552
-9.39486e-06
0.000286535
-8.86495e-06
0.000287535
-8.31218e-06
0.000288524
-7.73683e-06
0.000289507
-7.13943e-06
0.000290492
-6.52084e-06
0.000291484
-5.8823e-06
0.000292491
-5.22551e-06
0.000293523
-4.5527e-06
0.000294588
-3.86669e-06
0.000295697
-3.17089e-06
0.000296859
-2.46934e-06
0.000298085
-1.76659e-06
0.000299385
-1.06752e-06
0.000300766
-3.77339e-07
0.000302234
2.97482e-07
0.000303792
9.49863e-07
0.00030544
1.5728e-06
0.000307177
2.15947e-06
0.000308997
2.70444e-06
0.000310891
3.20323e-06
3.6531e-06
0.000312847
0.000224552
-1.5739e-06
0.000224831
-3.14176e-06
0.000225242
-4.51647e-06
0.000225772
-5.74424e-06
0.00022641
-6.85068e-06
0.000227148
-7.85237e-06
0.000227975
-8.7632e-06
0.000228886
-9.59494e-06
0.000229872
-1.03572e-05
0.000230927
-1.10578e-05
0.000232046
-1.17032e-05
0.000233223
-1.22988e-05
0.000234454
-1.28492e-05
0.000235734
-1.3358e-05
0.00023706
-1.38285e-05
0.000238426
-1.42635e-05
0.00023983
-1.46652e-05
0.000241269
-1.50356e-05
0.000242739
-1.53765e-05
0.000244237
-1.56892e-05
0.00024576
-1.59749e-05
0.000247306
-1.62349e-05
0.000248871
-1.64699e-05
0.000250454
-1.66807e-05
0.000252052
-1.68681e-05
0.000253662
-1.70326e-05
0.000255282
-1.71747e-05
0.00025691
-1.72949e-05
0.000258544
-1.73936e-05
0.000260181
-1.7471e-05
0.000261819
-1.75276e-05
0.000263457
-1.75634e-05
0.000265091
-1.75788e-05
0.000266721
-1.75739e-05
0.000268345
-1.75489e-05
0.00026996
-1.7504e-05
0.000271564
-1.74392e-05
0.000273157
-1.73546e-05
0.000274736
-1.72504e-05
0.0002763
-1.71266e-05
0.000277846
-1.69833e-05
0.000279374
-1.68204e-05
0.000280882
-1.6638e-05
0.000282369
-1.64361e-05
0.000283834
-1.62147e-05
0.000285275
-1.59736e-05
0.000286691
-1.57129e-05
0.000288082
-1.54324e-05
0.000289447
-1.5132e-05
0.000290784
-1.48117e-05
0.000292095
-1.44713e-05
0.000293378
-1.41107e-05
0.000294635
-1.37298e-05
0.000295864
-1.33285e-05
0.000297067
-1.29066e-05
0.000298245
-1.24642e-05
0.000299399
-1.20012e-05
0.000300531
-1.15178e-05
0.000301644
-1.10141e-05
0.00030274
-1.04904e-05
0.000303823
-9.94712e-06
0.000304896
-9.38502e-06
0.000305965
-8.80492e-06
0.000307034
-8.20799e-06
0.000308109
-7.59568e-06
0.000309197
-6.96979e-06
0.000310304
-6.33251e-06
0.000311438
-5.68644e-06
0.000312607
-5.0346e-06
0.000313816
-4.38044e-06
0.000315075
-3.72778e-06
0.00031639
-3.08081e-06
0.000317766
-2.44391e-06
0.000319211
-1.82162e-06
0.000320727
-1.21817e-06
0.000322315
-6.37745e-07
0.000323973
-8.46591e-08
0.000325696
4.36362e-07
0.000327479
9.21764e-07
0.000329314
1.36876e-06
1.77609e-06
0.000331191
0.000240273
-1.71245e-06
0.00024056
-3.42862e-06
0.000240982
-4.93855e-06
0.000241527
-6.28933e-06
0.000242185
-7.5082e-06
0.000242946
-8.61265e-06
0.0002438
-9.61738e-06
0.000244741
-1.0535e-05
0.00024576
-1.13758e-05
0.000246851
-1.21484e-05
0.000248008
-1.28599e-05
0.000249226
-1.3516e-05
0.0002505
-1.41219e-05
0.000251824
-1.46815e-05
0.000253195
-1.51986e-05
0.000254608
-1.56761e-05
0.00025606
-1.61165e-05
0.000257548
-1.65221e-05
0.000259067
-1.68947e-05
0.000260615
-1.72359e-05
0.000262188
-1.75472e-05
0.000263784
-1.78297e-05
0.000265399
-1.80845e-05
0.000267032
-1.83124e-05
0.000268679
-1.85142e-05
0.000270338
-1.86907e-05
0.000272007
-1.88423e-05
0.000273683
-1.89696e-05
0.000275363
-1.9073e-05
0.000277046
-1.9153e-05
0.00027873
-1.92099e-05
0.000280411
-1.92439e-05
0.000282089
-1.92555e-05
0.000283761
-1.92448e-05
0.000285425
-1.9212e-05
0.00028708
-1.91574e-05
0.000288723
-1.90811e-05
0.000290352
-1.89834e-05
0.000291967
-1.88643e-05
0.000293566
-1.8724e-05
0.000295146
-1.85627e-05
0.000296707
-1.83805e-05
0.000298247
-1.81774e-05
0.000299766
-1.79536e-05
0.000301261
-1.77092e-05
0.000302732
-1.74442e-05