/*--------------------------------*- C++ -*----------------------------------*\
| =========                 |                                                 |
| \\      /  F ield         | OpenFOAM: The Open Source CFD Toolbox           |
|  \\    /   O peration     | Version:  2106                                  |
|   \\  /    A nd           | Website:  www.openfoam.com                      |
|    \\/     M anipulation  |                                                 |
\*---------------------------------------------------------------------------*/
FoamFile
{
    version     2.0;
    format      ascii;
    arch        "LSB;label=32;scalar=64";
    class       volScalarField;
    location    "4.6";
    object      T;
}
// * * * * * * * * * * * * * * * * * * * * * * * * * * * * * * * * * * * * * //

dimensions      [0 0 0 1 0 0 0];

internalField   nonuniform List<scalar> 
12013
(
300.003
300.009
300.015
300.022
300.029
300.036
300.044
300.051
300.06
300.068
300.077
300.087
300.096
300.106
300.117
300.128
300.14
300.152
300.164
300.177
300.19
300.204
300.219
300.234
300.25
300.266
300.283
300.3
300.318
300.336
300.356
300.376
300.396
300.417
300.439
300.462
300.485
300.509
300.534
300.56
300.586
300.613
300.641
300.67
300.7
300.731
300.762
300.794
300.828
300.862
300.897
300.933
300.971
301.009
301.049
301.089
301.131
301.174
301.218
301.264
301.311
301.359
301.409
301.461
301.514
301.569
301.626
301.685
301.746
301.809
301.876
301.945
302.017
302.093
302.173
302.258
302.35
302.449
302.558
302.682
302.83
300.003
300.009
300.015
300.022
300.029
300.036
300.044
300.051
300.06
300.068
300.077
300.087
300.096
300.106
300.117
300.128
300.14
300.152
300.164
300.177
300.19
300.204
300.219
300.234
300.25
300.266
300.282
300.3
300.318
300.336
300.356
300.376
300.396
300.417
300.439
300.462
300.485
300.509
300.534
300.56
300.586
300.613
300.641
300.67
300.7
300.73
300.762
300.794
300.828
300.862
300.897
300.933
300.971
301.009
301.048
301.089
301.131
301.174
301.218
301.263
301.31
301.359
301.409
301.46
301.513
301.568
301.625
301.684
301.745
301.808
301.874
301.943
302.014
302.09
302.169
302.254
302.343
302.44
302.545
302.66
302.787
300.003
300.009
300.015
300.022
300.029
300.036
300.044
300.051
300.06
300.068
300.077
300.087
300.096
300.106
300.117
300.128
300.14
300.151
300.164
300.177
300.19
300.204
300.219
300.234
300.249
300.266
300.282
300.3
300.318
300.336
300.356
300.376
300.396
300.417
300.439
300.462
300.485
300.509
300.534
300.56
300.586
300.613
300.641
300.67
300.7
300.73
300.762
300.794
300.827
300.861
300.897
300.933
300.97
301.008
301.048
301.088
301.13
301.173
301.217
301.263
301.309
301.358
301.407
301.459
301.512
301.566
301.623
301.681
301.742
301.805
301.87
301.938
302.009
302.084
302.162
302.244
302.331
302.423
302.521
302.625
302.733
300.003
300.009
300.015
300.022
300.029
300.036
300.044
300.051
300.06
300.068
300.077
300.087
300.096
300.106
300.117
300.128
300.14
300.151
300.164
300.177
300.19
300.204
300.219
300.234
300.249
300.266
300.282
300.3
300.318
300.336
300.356
300.375
300.396
300.417
300.439
300.462
300.485
300.509
300.534
300.56
300.586
300.613
300.641
300.67
300.699
300.73
300.761
300.794
300.827
300.861
300.896
300.932
300.969
301.008
301.047
301.087
301.129
301.172
301.216
301.261
301.308
301.356
301.405
301.456
301.509
301.563
301.619
301.677
301.737
301.8
301.864
301.931
302.001
302.073
302.149
302.228
302.311
302.398
302.488
302.581
302.675
300.003
300.009
300.015
300.022
300.029
300.036
300.044
300.051
300.06
300.068
300.077
300.086
300.096
300.106
300.117
300.128
300.139
300.151
300.164
300.177
300.19
300.204
300.219
300.234
300.249
300.266
300.282
300.3
300.318
300.336
300.355
300.375
300.396
300.417
300.439
300.461
300.485
300.509
300.534
300.559
300.585
300.613
300.641
300.669
300.699
300.729
300.761
300.793
300.826
300.86
300.895
300.931
300.968
301.006
301.046
301.086
301.127
301.17
301.214
301.259
301.305
301.353
301.402
301.453
301.505
301.559
301.614
301.672
301.731
301.792
301.855
301.921
301.989
302.059
302.132
302.208
302.286
302.367
302.449
302.533
302.616
300.003
300.009
300.015
300.022
300.029
300.036
300.044
300.051
300.06
300.068
300.077
300.086
300.096
300.106
300.117
300.128
300.139
300.151
300.164
300.177
300.19
300.204
300.219
300.234
300.249
300.265
300.282
300.299
300.317
300.336
300.355
300.375
300.396
300.417
300.439
300.461
300.484
300.508
300.533
300.559
300.585
300.612
300.64
300.669
300.698
300.729
300.76
300.792
300.825
300.859
300.894
300.93
300.967
301.005
301.044
301.084
301.125
301.167
301.211
301.256
301.302
301.349
301.398
301.448
301.5
301.553
301.608
301.664
301.722
301.782
301.844
301.908
301.973
302.041
302.111
302.182
302.256
302.331
302.406
302.482
302.556
300.003
300.009
300.015
300.022
300.029
300.036
300.044
300.051
300.06
300.068
300.077
300.086
300.096
300.106
300.117
300.128
300.139
300.151
300.164
300.177
300.19
300.204
300.218
300.233
300.249
300.265
300.282
300.299
300.317
300.336
300.355
300.375
300.395
300.416
300.438
300.461
300.484
300.508
300.533
300.558
300.584
300.611
300.639
300.668
300.697
300.727
300.759
300.791
300.824
300.857
300.892
300.928
300.965
301.003
301.041
301.081
301.122
301.164
301.207
301.252
301.297
301.344
301.392
301.442
301.493
301.545
301.599
301.654
301.711
301.769
301.829
301.891
301.954
302.019
302.085
302.153
302.221
302.29
302.36
302.429
302.496
300.003
300.009
300.015
300.022
300.029
300.036
300.044
300.051
300.06
300.068
300.077
300.086
300.096
300.106
300.117
300.128
300.139
300.151
300.164
300.177
300.19
300.204
300.218
300.233
300.249
300.265
300.282
300.299
300.317
300.335
300.355
300.374
300.395
300.416
300.438
300.46
300.483
300.507
300.532
300.557
300.584
300.61
300.638
300.667
300.696
300.726
300.757
300.789
300.822
300.856
300.89
300.926
300.962
301
301.038
301.078
301.118
301.16
301.203
301.247
301.292
301.338
301.385
301.434
301.484
301.535
301.588
301.642
301.697
301.754
301.812
301.871
301.931
301.993
302.055
302.119
302.183
302.247
302.311
302.374
302.436
300.003
300.009
300.015
300.022
300.029
300.036
300.043
300.051
300.06
300.068
300.077
300.086
300.096
300.106
300.117
300.128
300.139
300.151
300.163
300.176
300.19
300.204
300.218
300.233
300.249
300.265
300.281
300.299
300.317
300.335
300.354
300.374
300.394
300.415
300.437
300.46
300.483
300.507
300.531
300.556
300.582
300.609
300.637
300.665
300.694
300.724
300.755
300.787
300.82
300.853
300.887
300.923
300.959
300.996
301.034
301.073
301.114
301.155
301.197
301.24
301.285
301.33
301.377
301.424
301.473
301.523
301.575
301.627
301.68
301.735
301.791
301.847
301.905
301.963
302.022
302.082
302.141
302.201
302.26
302.318
302.375
300.003
300.009
300.015
300.022
300.029
300.036
300.043
300.051
300.059
300.068
300.077
300.086
300.096
300.106
300.117
300.128
300.139
300.151
300.163
300.176
300.19
300.203
300.218
300.233
300.248
300.264
300.281
300.298
300.316
300.335
300.354
300.373
300.394
300.415
300.436
300.459
300.482
300.505
300.53
300.555
300.581
300.608
300.635
300.664
300.693
300.722
300.753
300.785
300.817
300.85
300.884
300.919
300.955
300.992
301.03
301.068
301.108
301.148
301.19
301.233
301.276
301.321
301.366
301.413
301.461
301.509
301.559
301.61
301.661
301.714
301.767
301.821
301.875
301.93
301.986
302.041
302.097
302.152
302.207
302.26
302.313
300.003
300.009
300.015
300.022
300.029
300.036
300.043
300.051
300.059
300.068
300.077
300.086
300.096
300.106
300.116
300.127
300.139
300.151
300.163
300.176
300.189
300.203
300.218
300.232
300.248
300.264
300.281
300.298
300.316
300.334
300.353
300.373
300.393
300.414
300.435
300.458
300.481
300.504
300.529
300.554
300.579
300.606
300.633
300.661
300.69
300.72
300.75
300.781
300.814
300.846
300.88
300.915
300.95
300.987
301.024
301.062
301.101
301.141
301.182
301.223
301.266
301.31
301.354
301.399
301.446
301.493
301.541
301.59
301.639
301.689
301.74
301.791
301.843
301.895
301.947
301.999
302.05
302.102
302.152
302.202
302.251
300.003
300.009
300.015
300.022
300.029
300.036
300.043
300.051
300.059
300.068
300.077
300.086
300.096
300.106
300.116
300.127
300.139
300.15
300.163
300.176
300.189
300.203
300.217
300.232
300.247
300.263
300.28
300.297
300.315
300.333
300.352
300.372
300.392
300.413
300.434
300.456
300.479
300.503
300.527
300.552
300.577
300.604
300.631
300.659
300.687
300.717
300.747
300.778
300.81
300.842
300.875
300.909
300.944
300.98
301.017
301.054
301.093
301.132
301.172
301.212
301.254
301.297
301.34
301.384
301.428
301.474
301.52
301.567
301.614
301.662
301.71
301.759
301.807
301.856
301.905
301.953
302.002
302.049
302.096
302.143
302.188
300.003
300.009
300.015
300.022
300.029
300.036
300.043
300.051
300.059
300.068
300.077
300.086
300.095
300.106
300.116
300.127
300.138
300.15
300.162
300.175
300.189
300.202
300.217
300.231
300.247
300.263
300.279
300.296
300.314
300.332
300.351
300.371
300.391
300.411
300.433
300.455
300.477
300.501
300.525
300.55
300.575
300.601
300.628
300.656
300.684
300.713
300.743
300.773
300.805
300.837
300.87
300.903
300.938
300.973
301.009
301.045
301.083
301.121
301.16
301.2
301.24
301.281
301.323
301.366
301.409
301.453
301.497
301.541
301.586
301.632
301.678
301.723
301.769
301.815
301.861
301.906
301.951
301.996
302.039
302.083
302.125
300.003
300.009
300.015
300.022
300.029
300.036
300.043
300.051
300.059
300.068
300.076
300.086
300.095
300.105
300.116
300.127
300.138
300.15
300.162
300.175
300.188
300.202
300.216
300.231
300.246
300.262
300.278
300.295
300.313
300.331
300.35
300.369
300.389
300.41
300.431
300.453
300.475
300.499
300.522
300.547
300.572
300.598
300.625
300.652
300.68
300.709
300.738
300.768
300.799
300.831
300.863
300.896
300.93
300.964
300.999
301.035
301.072
301.109
301.147
301.185
301.225
301.264
301.305
301.346
301.387
301.429
301.471
301.513
301.556
301.599
301.642
301.686
301.729
301.772
301.814
301.857
301.899
301.94
301.981
302.021
302.061
300.003
300.009
300.015
300.022
300.029
300.036
300.043
300.051
300.059
300.067
300.076
300.085
300.095
300.105
300.115
300.126
300.138
300.149
300.162
300.174
300.187
300.201
300.215
300.23
300.245
300.261
300.277
300.294
300.312
300.33
300.348
300.368
300.388
300.408
300.429
300.451
300.473
300.496
300.52
300.544
300.569
300.594
300.621
300.648
300.675
300.703
300.732
300.762
300.792
300.823
300.855
300.887
300.92
300.954
300.988
301.023
301.059
301.095
301.132
301.169
301.207
301.245
301.284
301.323
301.363
301.402
301.443
301.483
301.524
301.564
301.605
301.646
301.686
301.726
301.766
301.806
301.845
301.884
301.922
301.96
301.996
300.003
300.009
300.015
300.022
300.028
300.036
300.043
300.051
300.059
300.067
300.076
300.085
300.095
300.105
300.115
300.126
300.137
300.149
300.161
300.174
300.187
300.2
300.215
300.229
300.244
300.26
300.276
300.293
300.31
300.328
300.347
300.366
300.386
300.406
300.427
300.448
300.47
300.493
300.516
300.54
300.565
300.59
300.616
300.643
300.67
300.697
300.726
300.755
300.785
300.815
300.846
300.878
300.91
300.943
300.976
301.01
301.044
301.079
301.115
301.151
301.187
301.224
301.261
301.298
301.336
301.374
301.412
301.45
301.489
301.527
301.565
301.603
301.641
301.679
301.717
301.754
301.79
301.826
301.862
301.897
301.931
300.003
300.009
300.015
300.022
300.028
300.035
300.043
300.051
300.059
300.067
300.076
300.085
300.094
300.104
300.115
300.125
300.137
300.148
300.16
300.173
300.186
300.2
300.214
300.228
300.243
300.259
300.275
300.292
300.309
300.326
300.345
300.364
300.383
300.403
300.424
300.445
300.467
300.489
300.512
300.536
300.56
300.585
300.611
300.637
300.663
300.691
300.718
300.747
300.776
300.806
300.836
300.866
300.898
300.93
300.962
300.995
301.028
301.062
301.096
301.13
301.165
301.2
301.236
301.271
301.307
301.343
301.379
301.415
301.452
301.488
301.524
301.559
301.595
301.63
301.665
301.7
301.734
301.768
301.801
301.834
301.866
300.003
300.009
300.015
300.021
300.028
300.035
300.043
300.05
300.058
300.067
300.075
300.084
300.094
300.104
300.114
300.125
300.136
300.148
300.16
300.172
300.185
300.198
300.212
300.227
300.242
300.257
300.273
300.29
300.307
300.324
300.342
300.361
300.38
300.4
300.421
300.442
300.463
300.485
300.508
300.531
300.555
300.579
300.604
300.63
300.656
300.683
300.71
300.738
300.766
300.795
300.824
300.854
300.884
300.915
300.946
300.978
301.01
301.042
301.075
301.108
301.141
301.175
301.208
301.242
301.276
301.31
301.344
301.378
301.412
301.446
301.48
301.514
301.547
301.58
301.613
301.645
301.677
301.709
301.74
301.77
301.8
300.003
300.009
300.015
300.021
300.028
300.035
300.042
300.05
300.058
300.066
300.075
300.084
300.093
300.103
300.114
300.124
300.135
300.147
300.159
300.171
300.184
300.197
300.211
300.225
300.24
300.255
300.271
300.288
300.305
300.322
300.34
300.358
300.377
300.397
300.417
300.438
300.459
300.48
300.503
300.525
300.549
300.573
300.597
300.622
300.648
300.674
300.7
300.727
300.755
300.783
300.811
300.84
300.869
300.899
300.929
300.959
300.99
301.021
301.052
301.084
301.115
301.147
301.179
301.211
301.243
301.275
301.308
301.34
301.372
301.403
301.435
301.466
301.498
301.529
301.559
301.589
301.619
301.649
301.677
301.706
301.734
300.003
300.009
300.015
300.021
300.028
300.035
300.042
300.05
300.058
300.066
300.075
300.084
300.093
300.103
300.113
300.123
300.134
300.146
300.158
300.17
300.183
300.196
300.21
300.224
300.238
300.253
300.269
300.285
300.302
300.319
300.337
300.355
300.374
300.393
300.413
300.433
300.454
300.475
300.497
300.519
300.542
300.565
300.589
300.613
300.638
300.663
300.689
300.715
300.742
300.769
300.796
300.824
300.852
300.881
300.91
300.939
300.968
300.998
301.027
301.057
301.087
301.118
301.148
301.178
301.208
301.239
301.269
301.299
301.329
301.359
301.388
301.418
301.447
301.476
301.504
301.533
301.56
301.588
301.615
301.642
301.668
300.003
300.009
300.015
300.021
300.028
300.035
300.042
300.049
300.057
300.066
300.074
300.083
300.092
300.102
300.112
300.122
300.133
300.145
300.156
300.169
300.181
300.194
300.208
300.222
300.236
300.251
300.267
300.282
300.299
300.316
300.333
300.351
300.369
300.388
300.408
300.427
300.448
300.469
300.49
300.512
300.534
300.557
300.58
300.604
300.628
300.652
300.677
300.702
300.728
300.754
300.78
300.807
300.834
300.861
300.889
300.917
300.945
300.973
301.001
301.029
301.058
301.086
301.115
301.143
301.172
301.2
301.229
301.257
301.285
301.313
301.341
301.368
301.395
301.422
301.449
301.475
301.501
301.527
301.552
301.577
301.601
300.003
300.009
300.015
300.021
300.028
300.034
300.042
300.049
300.057
300.065
300.073
300.082
300.092
300.101
300.111
300.121
300.132
300.143
300.155
300.167
300.179
300.192
300.206
300.219
300.234
300.248
300.264
300.279
300.295
300.312
300.329
300.347
300.365
300.383
300.402
300.421
300.441
300.462
300.482
300.504
300.525
300.547
300.57
300.593
300.616
300.64
300.664
300.688
300.713
300.738
300.763
300.788
300.814
300.84
300.866
300.893
300.919
300.946
300.973
301
301.027
301.053
301.08
301.107
301.134
301.161
301.187
301.214
301.24
301.266
301.292
301.318
301.343
301.368
301.393
301.417
301.442
301.465
301.489
301.512
301.535
300.003
300.009
300.015
300.021
300.027
300.034
300.041
300.049
300.056
300.064
300.073
300.082
300.091
300.1
300.11
300.12
300.131
300.142
300.153
300.165
300.177
300.19
300.203
300.217
300.231
300.245
300.26
300.276
300.292
300.308
300.324
300.342
300.359
300.377
300.396
300.415
300.434
300.454
300.474
300.495
300.515
300.537
300.559
300.581
300.603
300.626
300.649
300.672
300.696
300.72
300.744
300.768
300.793
300.818
300.843
300.868
300.893
300.918
300.943
300.968
300.994
301.019
301.044
301.07
301.095
301.12
301.144
301.169
301.194
301.218
301.242
301.266
301.29
301.313
301.336
301.359
301.382
301.404
301.426
301.447
301.469
300.003
300.008
300.014
300.021
300.027
300.034
300.041
300.048
300.056
300.064
300.072
300.081
300.09
300.099
300.109
300.119
300.129
300.14
300.152
300.163
300.175
300.188
300.201
300.214
300.228
300.242
300.257
300.272
300.287
300.303
300.319
300.336
300.353
300.371
300.389
300.407
300.426
300.445
300.465
300.484
300.505
300.525
300.546
300.567
300.589
300.611
300.633
300.655
300.678
300.701
300.724
300.747
300.77
300.794
300.817
300.841
300.865
300.888
300.912
300.936
300.96
300.983
301.007
301.031
301.054
301.078
301.101
301.124
301.147
301.169
301.192
301.214
301.236
301.258
301.279
301.301
301.322
301.342
301.363
301.383
301.403
300.003
300.008
300.014
300.02
300.027
300.033
300.04
300.048
300.055
300.063
300.071
300.08
300.089
300.098
300.107
300.117
300.128
300.138
300.149
300.161
300.173
300.185
300.198
300.211
300.224
300.238
300.252
300.267
300.282
300.298
300.314
300.33
300.346
300.364
300.381
300.399
300.417
300.435
300.454
300.473
300.493
300.513
300.533
300.553
300.574
300.595
300.616
300.637
300.658
300.68
300.702
300.724
300.746
300.768
300.79
300.813
300.835
300.857
300.88
300.902
300.924
300.947
300.969
300.991
301.013
301.035
301.056
301.078
301.099
301.12
301.141
301.162
301.182
301.202
301.223
301.242
301.262
301.281
301.3
301.319
301.337
300.003
300.008
300.014
300.02
300.026
300.033
300.04
300.047
300.054
300.062
300.07
300.079
300.087
300.096
300.106
300.116
300.126
300.136
300.147
300.158
300.17
300.182
300.194
300.207
300.22
300.234
300.248
300.262
300.277
300.292
300.307
300.323
300.339
300.356
300.372
300.39
300.407
300.425
300.443
300.461
300.48
300.499
300.518
300.538
300.557
300.577
300.597
300.617
300.638
300.658
300.679
300.7
300.721
300.742
300.762
300.783
300.804
300.825
300.846
300.867
300.888
300.909
300.93
300.95
300.971
300.991
301.011
301.031
301.051
301.071
301.09
301.109
301.128
301.147
301.166
301.184
301.202
301.22
301.238
301.255
301.272
300.003
300.008
300.014
300.02
300.026
300.032
300.039
300.046
300.054
300.061
300.069
300.077
300.086
300.095
300.104
300.114
300.124
300.134
300.144
300.155
300.167
300.179
300.191
300.203
300.216
300.229
300.243
300.256
300.271
300.285
300.3
300.315
300.331
300.347
300.363
300.38
300.396
300.413
300.431
300.448
300.466
300.484
300.503
300.521
300.54
300.559
300.578
300.597
300.616
300.636
300.655
300.675
300.694
300.714
300.734
300.753
300.773
300.793
300.812
300.832
300.851
300.87
300.89
300.909
300.928
300.947
300.966
300.984
301.003
301.021
301.039
301.057
301.074
301.092
301.109
301.126
301.143
301.159
301.176
301.192
301.208
300.003
300.008
300.014
300.019
300.026
300.032
300.039
300.045
300.053
300.06
300.068
300.076
300.084
300.093
300.102
300.111
300.121
300.131
300.142
300.152
300.163
300.175
300.187
300.199
300.211
300.224
300.237
300.25
300.264
300.278
300.293
300.307
300.322
300.337
300.353
300.369
300.385
300.401
300.418
300.435
300.452
300.469
300.486
300.504
300.522
300.539
300.557
300.575
300.594
300.612
300.63
300.649
300.667
300.685
300.704
300.722
300.741
300.759
300.777
300.795
300.814
300.832
300.85
300.867
300.885
300.903
300.92
300.937
300.954
300.971
300.988
301.005
301.021
301.037
301.053
301.069
301.084
301.1
301.115
301.13
301.145
300.003
300.008
300.013
300.019
300.025
300.031
300.038
300.045
300.052
300.059
300.067
300.074
300.083
300.091
300.1
300.109
300.119
300.128
300.138
300.149
300.16
300.171
300.182
300.194
300.206
300.218
300.231
300.244
300.257
300.27
300.284
300.298
300.313
300.327
300.342
300.357
300.373
300.388
300.404
300.42
300.436
300.453
300.469
300.486
300.502
300.519
300.536
300.553
300.57
300.587
300.605
300.622
300.639
300.656
300.673
300.691
300.708
300.725
300.742
300.759
300.776
300.792
300.809
300.826
300.842
300.858
300.875
300.89
300.906
300.922
300.938
300.953
300.968
300.983
300.998
301.012
301.027
301.041
301.055
301.069
301.082
300.003
300.008
300.013
300.019
300.025
300.031
300.037
300.044
300.05
300.058
300.065
300.073
300.081
300.089
300.098
300.107
300.116
300.125
300.135
300.145
300.155
300.166
300.177
300.189
300.2
300.212
300.224
300.237
300.249
300.262
300.276
300.289
300.303
300.317
300.331
300.345
300.36
300.375
300.39
300.405
300.42
300.435
300.451
300.467
300.482
300.498
300.514
300.53
300.546
300.562
300.578
300.594
300.611
300.627
300.643
300.659
300.675
300.691
300.706
300.722
300.738
300.753
300.769
300.784
300.799
300.814
300.829
300.844
300.859
300.873
300.888
300.902
300.916
300.93
300.943
300.957
300.97
300.983
300.996
301.009
301.022
300.002
300.008
300.013
300.018
300.024
300.03
300.036
300.043
300.049
300.056
300.063
300.071
300.079
300.087
300.095
300.104
300.113
300.122
300.131
300.141
300.151
300.161
300.172
300.183
300.194
300.205
300.217
300.229
300.241
300.254
300.266
300.279
300.292
300.306
300.319
300.333
300.347
300.361
300.375
300.389
300.403
300.418
300.433
300.447
300.462
300.477
300.492
300.507
300.522
300.537
300.552
300.567
300.582
300.597
300.612
300.627
300.642
300.656
300.671
300.686
300.7
300.715
300.729
300.743
300.757
300.771
300.785
300.799
300.812
300.826
300.839
300.852
300.865
300.878
300.89
300.903
300.915
300.927
300.939
300.951
300.963
300.002
300.007
300.012
300.018
300.023
300.029
300.035
300.041
300.048
300.055
300.062
300.069
300.077
300.084
300.092
300.101
300.109
300.118
300.127
300.137
300.146
300.156
300.167
300.177
300.188
300.199
300.21
300.221
300.233
300.245
300.257
300.269
300.281
300.294
300.307
300.32
300.333
300.346
300.359
300.373
300.386
300.4
300.414
300.428
300.442
300.455
300.469
300.483
300.497
300.511
300.525
300.539
300.553
300.567
300.581
300.595
300.609
300.622
300.636
300.65
300.663
300.676
300.69
300.703
300.716
300.729
300.742
300.754
300.767
300.779
300.791
300.803
300.815
300.827
300.839
300.85
300.862
300.873
300.884
300.895
300.906
300.002
300.007
300.012
300.017
300.023
300.028
300.034
300.04
300.047
300.053
300.06
300.067
300.074
300.082
300.09
300.098
300.106
300.115
300.123
300.132
300.142
300.151
300.161
300.171
300.181
300.192
300.202
300.213
300.224
300.235
300.247
300.258
300.27
300.282
300.294
300.307
300.319
300.331
300.344
300.357
300.369
300.382
300.395
300.408
300.421
300.434
300.447
300.46
300.473
300.486
300.499
300.512
300.525
300.538
300.551
300.564
300.577
300.589
300.602
300.614
300.627
300.639
300.652
300.664
300.676
300.688
300.699
300.711
300.723
300.734
300.745
300.757
300.768
300.779
300.789
300.8
300.81
300.821
300.831
300.841
300.851
300.002
300.007
300.012
300.017
300.022
300.027
300.033
300.039
300.045
300.052
300.058
300.065
300.072
300.079
300.087
300.094
300.102
300.111
300.119
300.128
300.137
300.146
300.155
300.165
300.174
300.184
300.195
300.205
300.215
300.226
300.237
300.248
300.259
300.27
300.282
300.293
300.305
300.317
300.328
300.34
300.352
300.364
300.376
300.388
300.401
300.413
300.425
300.437
300.449
300.461
300.474
300.486
300.498
300.51
300.522
300.534
300.545
300.557
300.569
300.581
300.592
300.604
300.615
300.626
300.637
300.648
300.659
300.67
300.681
300.691
300.702
300.712
300.722
300.732
300.742
300.752
300.762
300.771
300.781
300.79
300.799
300.002
300.007
300.011
300.016
300.021
300.027
300.032
300.038
300.044
300.05
300.056
300.063
300.07
300.077
300.084
300.091
300.099
300.107
300.115
300.123
300.132
300.14
300.149
300.158
300.168
300.177
300.187
300.197
300.207
300.217
300.227
300.237
300.248
300.259
300.269
300.28
300.291
300.302
300.313
300.325
300.336
300.347
300.358
300.37
300.381
300.392
300.404
300.415
300.426
300.438
300.449
300.46
300.471
300.483
300.494
300.505
300.516
300.527
300.538
300.548
300.559
300.57
300.58
300.59
300.601
300.611
300.621
300.631
300.641
300.651
300.66
300.67
300.679
300.689
300.698
300.707
300.716
300.725
300.733
300.742
300.75
300.002
300.006
300.011
300.016
300.021
300.026
300.031
300.037
300.042
300.048
300.054
300.061
300.067
300.074
300.081
300.088
300.095
300.103
300.111
300.119
300.127
300.135
300.144
300.152
300.161
300.17
300.179
300.189
300.198
300.208
300.218
300.227
300.237
300.247
300.258
300.268
300.278
300.289
300.299
300.309
300.32
300.331
300.341
300.352
300.362
300.373
300.384
300.394
300.405
300.415
300.426
300.436
300.447
300.457
300.468
300.478
300.488
300.498
300.508
300.518
300.528
300.538
300.548
300.557
300.567
300.576
300.586
300.595
300.604
300.613
300.622
300.631
300.64
300.648
300.657
300.665
300.673
300.682
300.69
300.698
300.705
300.002
300.006
300.011
300.015
300.02
300.025
300.03
300.035
300.041
300.047
300.053
300.059
300.065
300.071
300.078
300.085
300.092
300.099
300.107
300.114
300.122
300.13
300.138
300.147
300.155
300.164
300.172
300.181
300.19
300.199
300.209
300.218
300.227
300.237
300.247
300.256
300.266
300.276
300.286
300.296
300.305
300.315
300.325
300.335
300.345
300.355
300.365
300.375
300.385
300.395
300.405
300.415
300.424
300.434
300.444
300.453
300.463
300.472
300.482
300.491
300.5
300.509
300.519
300.527
300.536
300.545
300.554
300.562
300.571
300.579
300.588
300.596
300.604
300.612
300.62
300.628
300.635
300.643
300.65
300.658
300.665
300.002
300.006
300.01
300.015
300.019
300.024
300.029
300.034
300.04
300.045
300.051
300.057
300.063
300.069
300.076
300.082
300.089
300.096
300.103
300.111
300.118
300.126
300.134
300.142
300.15
300.158
300.166
300.175
300.183
300.192
300.201
300.21
300.219
300.228
300.237
300.246
300.255
300.265
300.274
300.283
300.293
300.302
300.311
300.321
300.33
300.34
300.349
300.358
300.368
300.377
300.386
300.396
300.405
300.414
300.423
300.432
300.441
300.45
300.459
300.467
300.476
300.485
300.493
300.501
300.51
300.518
300.526
300.534
300.542
300.55
300.558
300.566
300.573
300.581
300.588
300.595
300.602
300.609
300.616
300.623
300.63
300.002
300.006
300.01
300.014
300.019
300.024
300.028
300.033
300.039
300.044
300.05
300.055
300.061
300.067
300.074
300.08
300.087
300.093
300.1
300.107
300.115
300.122
300.129
300.137
300.145
300.153
300.161
300.169
300.177
300.186
300.194
300.203
300.211
300.22
300.229
300.237
300.246
300.255
300.264
300.273
300.282
300.291
300.3
300.309
300.318
300.327
300.336
300.345
300.354
300.362
300.371
300.38
300.389
300.397
300.406
300.414
300.423
300.431
300.44
300.448
300.456
300.464
300.472
300.48
300.488
300.496
300.504
300.511
300.519
300.526
300.534
300.541
300.548
300.555
300.562
300.569
300.576
300.582
300.589
300.595
300.602
300.002
300.006
300.01
300.014
300.019
300.023
300.028
300.033
300.038
300.043
300.048
300.054
300.06
300.066
300.072
300.078
300.085
300.091
300.098
300.105
300.112
300.119
300.126
300.134
300.142
300.149
300.157
300.165
300.173
300.181
300.189
300.198
300.206
300.214
300.223
300.231
300.24
300.248
300.257
300.266
300.274
300.283
300.291
300.3
300.309
300.317
300.326
300.335
300.343
300.352
300.36
300.369
300.377
300.385
300.393
300.402
300.41
300.418
300.426
300.434
300.442
300.45
300.457
300.465
300.472
300.48
300.487
300.495
300.502
300.509
300.516
300.523
300.53
300.536
300.543
300.55
300.556
300.563
300.569
300.575
300.581
300.002
300.006
300.01
300.014
300.018
300.023
300.027
300.032
300.037
300.043
300.048
300.053
300.059
300.065
300.071
300.077
300.084
300.09
300.097
300.104
300.111
300.118
300.125
300.132
300.14
300.147
300.155
300.163
300.171
300.179
300.187
300.195
300.203
300.211
300.219
300.228
300.236
300.245
300.253
300.261
300.27
300.278
300.287
300.295
300.304
300.312
300.321
300.329
300.337
300.346
300.354
300.362
300.37
300.379
300.387
300.395
300.403
300.411
300.418
300.426
300.434
300.441
300.449
300.456
300.464
300.471
300.478
300.485
300.493
300.499
300.506
300.513
300.52
300.526
300.533
300.539
300.546
300.552
300.558
300.564
300.57
303.025
303.154
303.232
303.304
303.368
303.419
303.454
303.494
303.534
303.571
303.603
303.637
303.672
303.706
303.74
303.773
303.804
303.832
303.861
303.891
303.92
303.949
303.979
304.008
304.037
304.066
304.093
304.121
304.149
304.175
304.202
304.229
304.255
304.281
304.307
304.332
304.358
304.383
304.407
304.432
304.457
304.48
304.505
304.532
304.558
304.582
304.605
304.63
304.655
304.68
304.704
304.725
304.749
304.773
304.797
304.822
304.847
304.871
304.896
304.918
304.938
304.96
304.982
305.005
305.028
305.051
305.074
305.096
305.119
305.141
305.163
305.184
305.205
305.226
305.247
305.268
305.288
305.309
305.328
305.349
305.373
305.395
305.414
305.433
305.451
305.468
305.488
305.509
305.529
305.546
305.562
305.58
305.6
305.617
305.635
305.655
305.672
305.688
305.706
305.722
305.736
305.753
305.766
305.782
305.798
305.815
305.829
305.841
305.855
305.866
305.879
305.893
305.907
305.921
305.933
305.942
305.953
305.965
305.976
305.986
305.993
306.001
306.01
306.018
306.026
306.031
306.036
306.041
306.046
306.05
306.053
306.054
306.055
306.055
306.053
306.05
306.046
306.04
306.033
306.024
306.014
306.002
305.988
305.973
305.955
305.935
305.912
305.887
305.858
305.825
305.784
305.743
305.701
305.653
305.6
305.54
305.474
305.364
305.262
305.135
304.969
302.924
303.038
303.126
303.201
303.267
303.322
303.368
303.412
303.454
303.493
303.53
303.566
303.602
303.637
303.672
303.705
303.738
303.768
303.799
303.829
303.859
303.889
303.919
303.949
303.978
304.007
304.036
304.064
304.092
304.119
304.147
304.174
304.2
304.227
304.253
304.279
304.304
304.33
304.355
304.38
304.405
304.429
304.455
304.481
304.507
304.532
304.556
304.58
304.605
304.63
304.654
304.677
304.701
304.725
304.75
304.774
304.799
304.824
304.848
304.871
304.892
304.914
304.936
304.959
304.982
305.005
305.028
305.051
305.074
305.096
305.118
305.14
305.161
305.182
305.203
305.224
305.245
305.266
305.286
305.307
305.33
305.352
305.372
305.391
305.409
305.427
305.447
305.468
305.487
305.505
305.522
305.54
305.559
305.577
305.595
305.614
305.632
305.649
305.666
305.683
305.698
305.714
305.728
305.744
305.76
305.776
305.791
305.803
305.817
305.829
305.842
305.856
305.87
305.883
305.895
305.905
305.917
305.928
305.939
305.949
305.957
305.965
305.974
305.982
305.989
305.995
306.001
306.006
306.011
306.014
306.017
306.019
306.02
306.019
306.018
306.015
306.011
306.005
305.998
305.989
305.979
305.967
305.953
305.938
305.92
305.899
305.877
305.851
305.822
305.788
305.748
305.707
305.664
305.615
305.561
305.498
305.428
305.321
305.214
305.081
304.898
302.842
302.941
303.027
303.103
303.169
303.228
303.279
303.327
303.371
303.413
303.453
303.491
303.528
303.565
303.6
303.635
303.668
303.7
303.732
303.763
303.794
303.825
303.856
303.886
303.916
303.945
303.974
304.003
304.031
304.059
304.087
304.115
304.142
304.169
304.195
304.222
304.248
304.274
304.299
304.325
304.35
304.375
304.401