/*--------------------------------*- C++ -*----------------------------------*\
| =========                 |                                                 |
| \\      /  F ield         | OpenFOAM: The Open Source CFD Toolbox           |
|  \\    /   O peration     | Version:  2106                                  |
|   \\  /    A nd           | Website:  www.openfoam.com                      |
|    \\/     M anipulation  |                                                 |
\*---------------------------------------------------------------------------*/
FoamFile
{
    version     2.0;
    format      ascii;
    arch        "LSB;label=32;scalar=64";
    class       volVectorField;
    location    "4.6";
    object      U;
}
// * * * * * * * * * * * * * * * * * * * * * * * * * * * * * * * * * * * * * //

dimensions      [0 1 -1 0 0 0 0];

internalField   nonuniform List<vector> 
12013
(
(0.100033 -9.12153e-06 0)
(0.100167 -1.68627e-05 0)
(0.100383 -2.40335e-05 0)
(0.100663 -3.06397e-05 0)
(0.101001 -3.68436e-05 0)
(0.101391 -4.27383e-05 0)
(0.101829 -4.83835e-05 0)
(0.102309 -5.38269e-05 0)
(0.102829 -5.91052e-05 0)
(0.103386 -6.42462e-05 0)
(0.103976 -6.92728e-05 0)
(0.104598 -7.42035e-05 0)
(0.105249 -7.90524e-05 0)
(0.105927 -8.38317e-05 0)
(0.10663 -8.85506e-05 0)
(0.107356 -9.32164e-05 0)
(0.108105 -9.78347e-05 0)
(0.108874 -0.00010241 0)
(0.109662 -0.000106946 0)
(0.110468 -0.000111442 0)
(0.111291 -0.000115902 0)
(0.112128 -0.000120323 0)
(0.11298 -0.000124706 0)
(0.113844 -0.000129048 0)
(0.114721 -0.000133347 0)
(0.115608 -0.000137599 0)
(0.116504 -0.000141801 0)
(0.11741 -0.000145948 0)
(0.118323 -0.000150034 0)
(0.119242 -0.000154054 0)
(0.120167 -0.000158001 0)
(0.121097 -0.000161867 0)
(0.12203 -0.000165645 0)
(0.122965 -0.000169327 0)
(0.123902 -0.000172901 0)
(0.12484 -0.000176358 0)
(0.125777 -0.000179686 0)
(0.126713 -0.000182873 0)
(0.127646 -0.000185906 0)
(0.128576 -0.000188769 0)
(0.129501 -0.000191446 0)
(0.130421 -0.000193919 0)
(0.131333 -0.000196168 0)
(0.132238 -0.00019817 0)
(0.133134 -0.000199901 0)
(0.13402 -0.000201333 0)
(0.134894 -0.000202435 0)
(0.135755 -0.000203172 0)
(0.136603 -0.000203503 0)
(0.137434 -0.000203382 0)
(0.138249 -0.000202758 0)
(0.139044 -0.000201571 0)
(0.13982 -0.00019975 0)
(0.140572 -0.000197214 0)
(0.1413 -0.00019387 0)
(0.142001 -0.000189605 0)
(0.142673 -0.000184288 0)
(0.143312 -0.000177759 0)
(0.143916 -0.000169831 0)
(0.14448 -0.000160272 0)
(0.145001 -0.000148803 0)
(0.145474 -0.000135077 0)
(0.145892 -0.000118661 0)
(0.146249 -9.90132e-05 0)
(0.146537 -7.54395e-05 0)
(0.146747 -4.70451e-05 0)
(0.146866 -1.26575e-05 0)
(0.146879 2.9297e-05 0)
(0.146768 8.10045e-05 0)
(0.146508 0.000145513 0)
(0.146069 0.000227178 0)
(0.145408 0.000332403 0)
(0.144467 0.000470883 0)
(0.143163 0.000657777 0)
(0.14138 0.000917573 0)
(0.138938 0.0012912 0)
(0.135564 0.00184951 0)
(0.130806 0.00272251 0)
(0.123912 0.00418874 0)
(0.113858 0.00706075 0)
(0.102333 0.0151276 0)
(0.10003 -2.78523e-05 0)
(0.100164 -5.17018e-05 0)
(0.100379 -7.37255e-05 0)
(0.100659 -9.39999e-05 0)
(0.100996 -0.000113041 0)
(0.101385 -0.00013113 0)
(0.101821 -0.000148452 0)
(0.102301 -0.000165154 0)
(0.10282 -0.000181348 0)
(0.103376 -0.00019712 0)
(0.103965 -0.00021254 0)
(0.104586 -0.000227664 0)
(0.105236 -0.000242537 0)
(0.105913 -0.000257196 0)
(0.106615 -0.000271668 0)
(0.10734 -0.000285976 0)
(0.108088 -0.000300139 0)
(0.108856 -0.000314168 0)
(0.109643 -0.000328074 0)
(0.110447 -0.000341861 0)
(0.111268 -0.000355532 0)
(0.112104 -0.000369086 0)
(0.112955 -0.00038252 0)
(0.113818 -0.000395829 0)
(0.114692 -0.000409005 0)
(0.115578 -0.000422036 0)
(0.116473 -0.000434912 0)
(0.117376 -0.000447619 0)
(0.118287 -0.000460139 0)
(0.119205 -0.000472454 0)
(0.120128 -0.000484545 0)
(0.121055 -0.000496388 0)
(0.121986 -0.00050796 0)
(0.12292 -0.000519233 0)
(0.123855 -0.000530178 0)
(0.12479 -0.000540762 0)
(0.125725 -0.000550951 0)
(0.126659 -0.000560707 0)
(0.12759 -0.000569988 0)
(0.128517 -0.000578749 0)
(0.12944 -0.000586938 0)
(0.130357 -0.000594501 0)
(0.131267 -0.000601377 0)
(0.132169 -0.000607496 0)
(0.133062 -0.000612785 0)
(0.133945 -0.000617156 0)
(0.134816 -0.000620515 0)
(0.135675 -0.000622755 0)
(0.136519 -0.000623753 0)
(0.137348 -0.000623368 0)
(0.13816 -0.000621443 0)
(0.138953 -0.000617793 0)
(0.139725 -0.000612205 0)
(0.140475 -0.000604434 0)
(0.1412 -0.00059419 0)
(0.141899 -0.000581133 0)
(0.142568 -0.000564862 0)
(0.143205 -0.000544897 0)
(0.143807 -0.000520662 0)
(0.14437 -0.000491461 0)
(0.14489 -0.000456443 0)
(0.145362 -0.00041456 0)
(0.145781 -0.000364511 0)
(0.14614 -0.000304656 0)
(0.146432 -0.000232914 0)
(0.146647 -0.000146603 0)
(0.146774 -4.22228e-05 0)
(0.1468 8.48812e-05 0)
(0.146707 0.000241088 0)
(0.146474 0.000435241 0)
(0.146073 0.000679841 0)
(0.145469 0.000992998 0)
(0.144614 0.00140162 0)
(0.143445 0.00194675 0)
(0.141876 0.00269261 0)
(0.139791 0.00374188 0)
(0.137033 0.00526116 0)
(0.133387 0.00752227 0)
(0.128595 0.0109708 0)
(0.122674 0.0162483 0)
(0.117777 0.0236359 0)
(0.100028 -4.73464e-05 0)
(0.100159 -8.86865e-05 0)
(0.100373 -0.000126618 0)
(0.100651 -0.000161525 0)
(0.100986 -0.0001943 0)
(0.101374 -0.000225431 0)
(0.101808 -0.000255238 0)
(0.102286 -0.000283974 0)
(0.102804 -0.000311831 0)
(0.103357 -0.000338962 0)
(0.103945 -0.000365485 0)
(0.104564 -0.000391496 0)
(0.105211 -0.000417073 0)
(0.105886 -0.000442278 0)
(0.106586 -0.000467162 0)
(0.107309 -0.000491761 0)
(0.108054 -0.000516108 0)
(0.108819 -0.000540224 0)
(0.109604 -0.000564125 0)
(0.110406 -0.00058782 0)
(0.111224 -0.000611313 0)
(0.112057 -0.000634603 0)
(0.112904 -0.000657685 0)
(0.113764 -0.000680549 0)
(0.114636 -0.000703181 0)
(0.115518 -0.000725564 0)
(0.116409 -0.000747676 0)
(0.117309 -0.000769494 0)
(0.118217 -0.000790989 0)
(0.11913 -0.00081213 0)
(0.120049 -0.000832882 0)
(0.120973 -0.000853206 0)
(0.1219 -0.000873059 0)
(0.122829 -0.000892396 0)
(0.12376 -0.000911166 0)
(0.124691 -0.000929314 0)
(0.125621 -0.000946779 0)
(0.12655 -0.000963497 0)
(0.127476 -0.000979395 0)
(0.128398 -0.000994395 0)
(0.129316 -0.00100841 0)
(0.130227 -0.00102135 0)
(0.131132 -0.0010331 0)
(0.132029 -0.00104355 0)
(0.132917 -0.00105257 0)
(0.133794 -0.00106002 0)
(0.13466 -0.00106572 0)
(0.135512 -0.0010695 0)
(0.136351 -0.00107115 0)
(0.137174 -0.00107043 0)
(0.13798 -0.00106706 0)
(0.138767 -0.00106074 0)
(0.139533 -0.00105111 0)
(0.140278 -0.00103774 0)
(0.140997 -0.00102015 0)
(0.141691 -0.000997756 0)
(0.142355 -0.000969888 0)
(0.142988 -0.000935737 0)
(0.143585 -0.000894334 0)
(0.144145 -0.000844513 0)
(0.144662 -0.000784853 0)
(0.145133 -0.000713615 0)
(0.145553 -0.00062864 0)
(0.145914 -0.00052723 0)
(0.146211 -0.000405976 0)
(0.146436 -0.00026052 0)
(0.146577 -8.52185e-05 0)
(0.146624 0.000127323 0)
(0.146562 0.000387055 0)
(0.146373 0.000707556 0)
(0.146038 0.00110759 0)
(0.145529 0.00161358 0)
(0.144815 0.00226337 0)
(0.143859 0.00311205 0)
(0.142618 0.00424082 0)
(0.141049 0.00576986 0)
(0.139117 0.00787477 0)
(0.136828 0.0108021 0)
(0.134285 0.0148671 0)
(0.131893 0.0203222 0)
(0.13084 0.0266089 0)
(0.100025 -6.74372e-05 0)
(0.100155 -0.000127716 0)
(0.100366 -0.00018265 0)
(0.10064 -0.000233232 0)
(0.100973 -0.000280704 0)
(0.101358 -0.00032578 0)
(0.10179 -0.000368927 0)
(0.102265 -0.000410516 0)
(0.102779 -0.000450828 0)
(0.10333 -0.000490081 0)
(0.103915 -0.00052845 0)
(0.10453 -0.000566073 0)
(0.105175 -0.000603064 0)
(0.105846 -0.000639511 0)
(0.106542 -0.000675489 0)
(0.107262 -0.000711052 0)
(0.108003 -0.000746245 0)
(0.108765 -0.000781099 0)
(0.109545 -0.000815637 0)
(0.110343 -0.000849873 0)
(0.111157 -0.000883812 0)
(0.111985 -0.000917453 0)
(0.112828 -0.000950788 0)
(0.113683 -0.000983803 0)
(0.11455 -0.00101648 0)
(0.115427 -0.00104879 0)
(0.116313 -0.0010807 0)
(0.117207 -0.00111218 0)
(0.118109 -0.00114319 0)
(0.119017 -0.00117368 0)
(0.11993 -0.0012036 0)
(0.120848 -0.0012329 0)
(0.121768 -0.00126151 0)
(0.122691 -0.00128937 0)
(0.123615 -0.0013164 0)
(0.124539 -0.00134252 0)
(0.125462 -0.00136766 0)
(0.126384 -0.0013917 0)
(0.127302 -0.00141455 0)
(0.128217 -0.0014361 0)
(0.129127 -0.00145623 0)
(0.130031 -0.00147478 0)
(0.130928 -0.00149162 0)
(0.131816 -0.00150658 0)
(0.132696 -0.00151946 0)
(0.133565 -0.00153006 0)
(0.134422 -0.00153815 0)
(0.135266 -0.00154347 0)
(0.136096 -0.0015457 0)
(0.13691 -0.00154452 0)
(0.137708 -0.00153954 0)
(0.138486 -0.00153031 0)
(0.139244 -0.00151632 0)
(0.13998 -0.00149698 0)
(0.140692 -0.0014716 0)
(0.141377 -0.00143936 0)
(0.142035 -0.00139931 0)
(0.142661 -0.00135032 0)
(0.143253 -0.00129105 0)
(0.143808 -0.00121986 0)
(0.144322 -0.00113481 0)
(0.144792 -0.00103349 0)
(0.145212 -0.000912968 0)
(0.145578 -0.000769584 0)
(0.145884 -0.000598764 0)
(0.146122 -0.000394721 0)
(0.146285 -0.000150066 0)
(0.146363 0.000144705 0)
(0.146347 0.00050206 0)
(0.146223 0.000938614 0)
(0.145979 0.00147663 0)
(0.1456 0.00214625 0)
(0.145071 0.00298857 0)
(0.144382 0.00405987 0)
(0.143528 0.00543685 0)
(0.14252 0.00722222 0)
(0.141404 0.00954694 0)
(0.140288 0.0125597 0)
(0.139379 0.0163808 0)
(0.139041 0.0209504 0)
(0.139788 0.0256111 0)
(0.100023 -8.81319e-05 0)
(0.10015 -0.000168717 0)
(0.100357 -0.000241788 0)
(0.100628 -0.000309142 0)
(0.100957 -0.00037233 0)
(0.101338 -0.000432303 0)
(0.101766 -0.000489696 0)
(0.102237 -0.000545002 0)
(0.102748 -0.000598597 0)
(0.103295 -0.000650774 0)
(0.103875 -0.000701765 0)
(0.104486 -0.000751756 0)
(0.105126 -0.000800897 0)
(0.105793 -0.000849308 0)
(0.106484 -0.000897086 0)
(0.107199 -0.000944304 0)
(0.107935 -0.000991022 0)
(0.108692 -0.00103728 0)
(0.109466 -0.00108311 0)
(0.110258 -0.00112854 0)
(0.111066 -0.00117356 0)
(0.111889 -0.00121817 0)
(0.112725 -0.00126237 0)
(0.113574 -0.00130613 0)
(0.114434 -0.00134944 0)
(0.115304 -0.00139224 0)
(0.116183 -0.00143452 0)
(0.11707 -0.0014762 0)
(0.117964 -0.00151726 0)
(0.118864 -0.00155761 0)
(0.119769 -0.00159719 0)
(0.120678 -0.00163594 0)
(0.12159 -0.00167376 0)
(0.122504 -0.00171058 0)
(0.123419 -0.00174628 0)
(0.124334 -0.00178077 0)
(0.125248 -0.00181393 0)
(0.12616 -0.00184564 0)
(0.127069 -0.00187575 0)
(0.127974 -0.00190412 0)
(0.128873 -0.00193059 0)
(0.129767 -0.00195497 0)
(0.130653 -0.00197706 0)
(0.131531 -0.00199664 0)
(0.132399 -0.00201347 0)
(0.133257 -0.00202728 0)
(0.134103 -0.00203775 0)
(0.134936 -0.00204454 0)
(0.135755 -0.00204726 0)
(0.136558 -0.00204547 0)
(0.137343 -0.00203866 0)
(0.138111 -0.00202627 0)
(0.138858 -0.00200761 0)
(0.139583 -0.00198194 0)
(0.140285 -0.00194836 0)
(0.140961 -0.00190583 0)
(0.141609 -0.00185314 0)
(0.142227 -0.00178885 0)
(0.142812 -0.00171126 0)
(0.143362 -0.00161834 0)
(0.143873 -0.00150763 0)
(0.144342 -0.0013762 0)
(0.144765 -0.00122042 0)
(0.145138 -0.00103588 0)
(0.145456 -0.000817112 0)
(0.145715 -0.000557291 0)
(0.145907 -0.00024787 0)
(0.146028 0.000121899 0)
(0.146071 0.000565633 0)
(0.146029 0.00110093 0)
(0.145897 0.00175049 0)
(0.145672 0.00254358 0)
(0.145354 0.00351778 0)
(0.144951 0.00472089 0)
(0.144484 0.00621227 0)
(0.143995 0.00806216 0)
(0.14356 0.0103455 0)
(0.143301 0.0131227 0)
(0.143401 0.0163939 0)
(0.144094 0.0200033 0)
(0.145581 0.0234771 0)
(0.10002 -0.000109439 0)
(0.100144 -0.000211622 0)
(0.100347 -0.000303987 0)
(0.100614 -0.000389245 0)
(0.100938 -0.000469216 0)
(0.101314 -0.00054509 0)
(0.101738 -0.000617679 0)
(0.102204 -0.000687608 0)
(0.102709 -0.000755355 0)
(0.103251 -0.000821293 0)
(0.103826 -0.000885715 0)
(0.104432 -0.000948858 0)
(0.105066 -0.00101091 0)
(0.105727 -0.00107203 0)
(0.106412 -0.00113234 0)
(0.107121 -0.00119192 0)
(0.10785 -0.00125086 0)
(0.1086 -0.00130921 0)
(0.109368 -0.001367 0)
(0.110152 -0.00142427 0)
(0.110953 -0.00148101 0)
(0.111768 -0.00153722 0)
(0.112596 -0.0015929 0)
(0.113436 -0.00164801 0)
(0.114288 -0.00170252 0)
(0.115149 -0.0017564 0)
(0.116019 -0.00180958 0)
(0.116897 -0.00186201 0)
(0.117781 -0.00191362 0)
(0.118671 -0.00196433 0)
(0.119566 -0.00201406 0)
(0.120465 -0.00206271 0)
(0.121366 -0.00211018 0)
(0.122269 -0.00215635 0)
(0.123173 -0.00220111 0)
(0.124076 -0.00224432 0)
(0.124978 -0.00228583 0)
(0.125878 -0.00232549 0)
(0.126775 -0.00236313 0)
(0.127667 -0.00239855 0)
(0.128554 -0.00243156 0)
(0.129434 -0.00246192 0)
(0.130307 -0.00248938 0)
(0.131172 -0.00251367 0)
(0.132026 -0.00253449 0)
(0.132871 -0.00255149 0)
(0.133703 -0.0025643 0)
(0.134522 -0.00257248 0)
(0.135327 -0.00257555 0)
(0.136116 -0.00257298 0)
(0.136888 -0.00256414 0)
(0.137642 -0.00254833 0)
(0.138376 -0.00252473 0)
(0.139089 -0.00249243 0)
(0.139778 -0.00245035 0)
(0.140443 -0.00239723 0)
(0.141081 -0.00233164 0)
(0.14169 -0.00225187 0)
(0.142267 -0.0021559 0)
(0.142812 -0.00204136 0)
(0.14332 -0.00190543 0)
(0.14379 -0.00174472 0)
(0.144218 -0.00155514 0)
(0.144602 -0.00133176 0)
(0.144937 -0.0010686 0)
(0.145221 -0.000758295 0)
(0.145451 -0.000391867 0)
(0.145623 4.1723e-05 0)
(0.145736 0.000555784 0)
(0.145788 0.00116693 0)
(0.145781 0.00189563 0)
(0.145719 0.00276678 0)
(0.145615 0.00381017 0)
(0.145486 0.00506047 0)
(0.145367 0.00655596 0)
(0.145307 0.00833504 0)
(0.14538 0.010428 0)
(0.145687 0.012841 0)
(0.146355 0.0155267 0)
(0.147508 0.0183401 0)
(0.149215 0.0209888 0)
(0.100018 -0.000131368 0)
(0.100139 -0.000256373 0)
(0.100337 -0.000369203 0)
(0.100598 -0.000473512 0)
(0.100917 -0.00057137 0)
(0.101288 -0.000664189 0)
(0.101705 -0.000752965 0)
(0.102166 -0.000838462 0)
(0.102665 -0.000921266 0)
(0.1032 -0.00100183 0)
(0.103768 -0.00108053 0)
(0.104367 -0.00115764 0)
(0.104995 -0.00123339 0)
(0.105648 -0.00130799 0)
(0.106326 -0.00138157 0)
(0.107027 -0.00145425 0)
(0.107748 -0.00152612 0)
(0.10849 -0.00159725 0)
(0.109249 -0.00166768 0)
(0.110025 -0.00173744 0)
(0.110816 -0.00180654 0)
(0.111621 -0.00187498 0)
(0.11244 -0.00194275 0)
(0.11327 -0.0020098 0)
(0.114111 -0.0020761 0)
(0.114962 -0.0021416 0)
(0.115821 -0.00220623 0)
(0.116687 -0.00226992 0)
(0.11756 -0.00233259 0)
(0.118438 -0.00239413 0)
(0.119321 -0.00245445 0)
(0.120207 -0.00251343 0)
(0.121095 -0.00257095 0)
(0.121985 -0.00262686 0)
(0.122875 -0.00268102 0)
(0.123765 -0.00273326 0)
(0.124653 -0.00278342 0)
(0.125538 -0.00283129 0)
(0.12642 -0.00287667 0)
(0.127297 -0.00291933 0)
(0.128168 -0.00295902 0)
(0.129033 -0.00299547 0)
(0.129891 -0.00302839 0)
(0.130739 -0.00305743 0)
(0.131578 -0.00308223 0)
(0.132406 -0.00310239 0)
(0.133222 -0.00311745 0)
(0.134025 -0.00312691 0)
(0.134814 -0.00313019 0)
(0.135587 -0.00312666 0)
(0.136344 -0.00311559 0)
(0.137082 -0.00309615 0)
(0.137801 -0.00306741 0)
(0.138499 -0.00302829 0)
(0.139175 -0.00297755 0)
(0.139827 -0.00291377 0)
(0.140454 -0.00283531 0)
(0.141053 -0.00274023 0)
(0.141624 -0.00262632 0)
(0.142163 -0.00249093 0)
(0.14267 -0.002331 0)
(0.143142 -0.00214286 0)
(0.143578 -0.00192222 0)
(0.143975 -0.00166393 0)
(0.144331 -0.00136188 0)
(0.144646 -0.00100878 0)
(0.144919 -0.000595937 0)
(0.14515 -0.000113013 0)
(0.145339 0.000451988 0)
(0.14549 0.00111304 0)
(0.14561 0.00188661 0)
(0.145708 0.00279139 0)
(0.145802 0.00384785 0)
(0.145914 0.0050772 0)
(0.146079 0.00649918 0)
(0.146343 0.00812822 0)
(0.146765 0.00996686 0)
(0.147414 0.0119957 0)
(0.148365 0.0141591 0)
(0.14968 0.016349 0)
(0.15137 0.0183961 0)
(0.100015 -0.000153938 0)
(0.100134 -0.00030293 0)
(0.100326 -0.000437395 0)
(0.100582 -0.000561906 0)
(0.100894 -0.000678776 0)
(0.101259 -0.000789616 0)
(0.101669 -0.000895603 0)
(0.102122 -0.000997647 0)
(0.102614 -0.00109645 0)
(0.103142 -0.00119254 0)
(0.103703 -0.00128637 0)
(0.104294 -0.00137829 0)
(0.104912 -0.00146856 0)
(0.105557 -0.00155741 0)
(0.106226 -0.00164502 0)
(0.106918 -0.00173154 0)
(0.10763 -0.00181706 0)
(0.108361 -0.00190167 0)
(0.10911 -0.00198542 0)
(0.109875 -0.00206834 0)
(0.110656 -0.00215045 0)
(0.11145 -0.00223174 0)
(0.112257 -0.00231219 0)
(0.113075 -0.00239177 0)
(0.113904 -0.00247042 0)
(0.114742 -0.00254809 0)
(0.115588 -0.00262469 0)
(0.116441 -0.00270013 0)
(0.1173 -0.00277432 0)
(0.118165 -0.00284715 0)
(0.119033 -0.00291848 0)
(0.119904 -0.00298819 0)
(0.120777 -0.00305612 0)
(0.121652 -0.0031221 0)
(0.122526 -0.00318597 0)
(0.123399 -0.00324753 0)
(0.124271 -0.00330656 0)
(0.125139 -0.00336285 0)
(0.126004 -0.00341615 0)
(0.126864 -0.00346619 0)
(0.127718 -0.00351267 0)
(0.128565 -0.00355528 0)
(0.129404 -0.00359367 0)
(0.130235 -0.00362746 0)
(0.131055 -0.00365621 0)
(0.131865 -0.00367946 0)
(0.132663 -0.00369668 0)
(0.133447 -0.00370729 0)
(0.134218 -0.00371065 0)
(0.134973 -0.00370601 0)
(0.135712 -0.00369256 0)
(0.136433 -0.00366937 0)
(0.137136 -0.00363538 0)
(0.137818 -0.0035894 0)
(0.13848 -0.00353007 0)
(0.139118 -0.00345582 0)
(0.139733 -0.00336487 0)
(0.140323 -0.00325515 0)
(0.140886 -0.00312428 0)
(0.141421 -0.00296953 0)
(0.141927 -0.0027877 0)
(0.142403 -0.00257508 0)
(0.142848 -0.0023274 0)
(0.143261 -0.00203963 0)
(0.143643 -0.00170599 0)
(0.143992 -0.00131974 0)
(0.144311 -0.000873129 0)
(0.144602 -0.000357291 0)
(0.144869 0.000237778 0)
(0.145118 0.000922533 0)
(0.145357 0.00170868 0)
(0.1456 0.00260839 0)
(0.145864 0.00363349 0)
(0.146172 0.00479406 0)
(0.146553 0.00609643 0)
(0.147044 0.00754022 0)
(0.147684 0.00911427 0)
(0.148518 0.0107916 0)
(0.149586 0.0125241 0)
(0.150913 0.0142384 0)
(0.152491 0.0158389 0)
(0.100012 -0.000177178 0)
(0.100128 -0.000351265 0)
(0.100316 -0.000508526 0)
(0.100565 -0.000654385 0)
(0.10087 -0.000791401 0)
(0.101227 -0.000921355 0)
(0.10163 -0.0010456 0)
(0.102075 -0.0011652 0)
(0.102559 -0.00128095 0)
(0.103078 -0.0013935 0)
(0.103629 -0.00150336 0)
(0.104211 -0.00161093 0)
(0.10482 -0.00171654 0)
(0.105455 -0.00182045 0)
(0.106113 -0.00192287 0)
(0.106794 -0.00202397 0)
(0.107495 -0.00212387 0)
(0.108215 -0.00222266 0)
(0.108952 -0.00232041 0)
(0.109705 -0.00241715 0)
(0.110473 -0.0025129 0)
(0.111255 -0.00260765 0)
(0.112048 -0.00270139 0)
(0.112853 -0.00279405 0)
(0.113667 -0.0028856 0)
(0.114491 -0.00297595 0)
(0.115322 -0.00306501 0)
(0.11616 -0.00315268 0)
(0.117003 -0.00323884 0)
(0.117851 -0.00332336 0)
(0.118703 -0.00340609 0)
(0.119557 -0.00348688 0)
(0.120413 -0.00356554 0)
(0.12127 -0.0036419 0)
(0.122126 -0.00371573 0)
(0.122981 -0.00378683 0)
(0.123834 -0.00385494 0)
(0.124683 -0.00391981 0)
(0.125529 -0.00398114 0)
(0.126369 -0.00403865 0)
(0.127203 -0.00409198 0)
(0.12803 -0.00414078 0)
(0.128849 -0.00418464 0)
(0.129659 -0.00422312 0)
(0.130459 -0.00425576 0)
(0.131249 -0.00428201 0)
(0.132026 -0.00430129 0)
(0.13279 -0.00431294 0)
(0.133541 -0.00431625 0)
(0.134276 -0.00431041 0)
(0.134996 -0.00429452 0)
(0.135699 -0.00426755 0)
(0.136383 -0.00422838 0)
(0.137049 -0.00417572 0)
(0.137695 -0.00410812 0)
(0.138319 -0.00402393 0)
(0.138922 -0.00392129 0)
(0.139502 -0.00379809 0)
(0.140058 -0.00365191 0)
(0.140589 -0.00348002 0)
(0.141096 -0.00327929 0)
(0.141578 -0.00304617 0)
(0.142034 -0.00277663 0)
(0.142465 -0.00246612 0)
(0.142872 -0.00210948 0)
(0.143257 -0.00170098 0)
(0.143623 -0.00123427 0)
(0.143973 -0.000702394 0)
(0.144313 -9.78978e-05 0)
(0.144651 0.000586611 0)
(0.144996 0.00135785 0)
(0.145361 0.00222232 0)
(0.145761 0.00318499 0)
(0.146217 0.00424817 0)
(0.14675 0.00541 0)
(0.147385 0.00666271 0)
(0.14815 0.00799055 0)
(0.149067 0.00936793 0)
(0.150158 0.0107581 0)
(0.151427 0.0121136 0)
(0.152866 0.0133805 0)
(0.100009 -0.000201116 0)
(0.100123 -0.000401354 0)
(0.100305 -0.000582562 0)
(0.100547 -0.000750901 0)
(0.100845 -0.000909194 0)
(0.101194 -0.00105936 0)
(0.101588 -0.00120293 0)
(0.102024 -0.0013411 0)
(0.102498 -0.00147479 0)
(0.103007 -0.00160473 0)
(0.103549 -0.00173152 0)
(0.104119 -0.00185562 0)
(0.104718 -0.0019774 0)
(0.105341 -0.00209718 0)
(0.105988 -0.00221519 0)
(0.106656 -0.00233162 0)
(0.107345 -0.00244662 0)
(0.108051 -0.00256029 0)
(0.108775 -0.00267271 0)
(0.109514 -0.00278391 0)
(0.110268 -0.00289392 0)
(0.111035 -0.00300274 0)
(0.111813 -0.00311032 0)
(0.112602 -0.00321662 0)
(0.1134 -0.00332158 0)
(0.114207 -0.0034251 0)
(0.115022 -0.00352708 0)
(0.115842 -0.00362741 0)
(0.116668 -0.00372595 0)
(0.117498 -0.00382254 0)
(0.118331 -0.00391701 0)
(0.119166 -0.00400919 0)
(0.120002 -0.00409887 0)
(0.120839 -0.00418583 0)
(0.121675 -0.00426985 0)
(0.12251 -0.00435066 0)
(0.123342 -0.00442799 0)
(0.12417 -0.00450154 0)
(0.124994 -0.004571 0)
(0.125812 -0.00463601 0)
(0.126624 -0.0046962 0)
(0.127429 -0.00475116 0)
(0.128226 -0.00480045 0)
(0.129014 -0.00484358 0)
(0.129792 -0.00488001 0)
(0.130558 -0.00490917 0)
(0.131313 -0.00493041 0)
(0.132056 -0.00494303 0)
(0.132785 -0.00494624 0)
(0.133499 -0.00493917 0)
(0.134198 -0.00492088 0)
(0.134881 -0.00489027 0)
(0.135546 -0.00484617 0)
(0.136194 -0.00478725 0)
(0.136824 -0.00471201 0)
(0.137434 -0.00461879 0)
(0.138025 -0.00450573 0)
(0.138595 -0.00437075 0)
(0.139144 -0.00421153 0)
(0.139673 -0.00402545 0)
(0.140181 -0.00380962 0)
(0.140668 -0.00356083 0)
(0.141136 -0.00327554 0)
(0.141585 -0.00294984 0)
(0.142018 -0.00257953 0)
(0.142438 -0.0021601 0)
(0.142847 -0.00168681 0)
(0.143251 -0.00115481 0)
(0.143656 -0.000559228 0)
(0.14407 0.000104648 0)
(0.144501 0.000839808 0)
(0.144962 0.00164807 0)
(0.145463 0.00252972 0)
(0.146022 0.0034824 0)
(0.146652 0.00450022 0)
(0.147371 0.00557286 0)
(0.148193 0.00668488 0)
(0.149131 0.00781529 0)
(0.150194 0.00893782 0)
(0.151379 0.0100224 0)
(0.152677 0.0110383 0)
(0.100006 -0.000225781 0)
(0.100117 -0.000453179 0)
(0.100294 -0.000659461 0)
(0.10053 -0.000851398 0)
(0.10082 -0.00103208 0)
(0.101159 -0.00120357 0)
(0.101544 -0.00136752 0)
(0.10197 -0.00152528 0)
(0.102434 -0.00167789 0)
(0.102932 -0.00182618 0)
(0.103461 -0.0019708 0)
(0.10402 -0.0021123 0)
(0.104606 -0.0022511 0)
(0.105216 -0.00238755 0)
(0.10585 -0.00252192 0)
(0.106505 -0.00265443 0)
(0.107179 -0.00278525 0)
(0.107871 -0.00291448 0)
(0.108579 -0.00304223 0)
(0.109303 -0.00316853 0)
(0.110041 -0.00329341 0)
(0.110791 -0.00341685 0)
(0.111552 -0.00353883 0)
(0.112324 -0.00365928 0)
(0.113104 -0.00377813 0)
(0.113893 -0.00389528 0)
(0.114688 -0.00401061 0)
(0.115489 -0.00412399 0)
(0.116295 -0.00423525 0)
(0.117105 -0.00434424 0)
(0.117917 -0.00445075 0)
(0.118731 -0.00455458 0)
(0.119546 -0.0046555 0)
(0.120361 -0.00475327 0)
(0.121175 -0.00484762 0)
(0.121986 -0.00493826 0)
(0.122795 -0.0050249 0)
(0.1236 -0.0051072 0)
(0.124401 -0.00518479 0)
(0.125195 -0.00525731 0)
(0.125983 -0.00532433 0)
(0.126764 -0.0053854 0)
(0.127537 -0.00544005 0)
(0.1283 -0.00548773 0)
(0.129053 -0.00552788 0)
(0.129796 -0.00555986 0)
(0.130527 -0.005583 0)
(0.131246 -0.00559655 0)
(0.131952 -0.00559967 0)
(0.132643 -0.00559147 0)
(0.13332 -0.00557096 0)
(0.133982 -0.00553704 0)
(0.134628 -0.00548849 0)
(0.135258 -0.005424 0)
(0.135871 -0.00534209 0)
(0.136466 -0.00524114 0)
(0.137044 -0.00511939 0)
(0.137605 -0.00497485 0)
(0.138148 -0.00480541 0)
(0.138673 -0.00460871 0)
(0.139182 -0.00438223 0)
(0.139676 -0.00412322 0)
(0.140155 -0.00382877 0)
(0.140621 -0.00349582 0)
(0.141078 -0.0031212 0)
(0.141528 -0.0027017 0)
(0.141975 -0.00223421 0)
(0.142425 -0.00171582 0)
(0.142882 -0.001144 0)
(0.143355 -0.000516717 0)
(0.143852 0.000167481 0)
(0.144381 0.000907161 0)
(0.144952 0.0016994 0)
(0.145574 0.00253959 0)
(0.146259 0.00342053 0)
(0.147016 0.0043321 0)
(0.147852 0.00526117 0)
(0.148774 0.00619181 0)
(0.149783 0.00710591 0)
(0.150875 0.00798448 0)
(0.152043 0.00880984 0)
(0.100003 -0.000251189 0)
(0.100112 -0.000506712 0)
(0.100283 -0.00073917 0)
(0.100511 -0.000955797 0)
(0.100793 -0.00115997 0)
(0.101123 -0.00135385 0)
(0.101498 -0.00153924 0)
(0.101913 -0.00171761 0)
(0.102365 -0.00189012 0)
(0.102851 -0.00205769 0)
(0.103368 -0.00222106 0)
(0.103913 -0.00238083 0)
(0.104485 -0.00253748 0)
(0.105081 -0.0026914 0)
(0.1057 -0.0028429 0)
(0.106339 -0.00299222 0)
(0.106998 -0.00313955 0)
(0.107674 -0.00328502 0)
(0.108365 -0.00342873 0)
(0.109072 -0.00357073 0)
(0.109791 -0.00371104 0)
(0.110523 -0.00384965 0)
(0.111266 -0.00398653 0)
(0.112018 -0.00412161 0)
(0.112778 -0.0042548 0)
(0.113547 -0.00438599 0)
(0.114321 -0.00451504 0)
(0.115101 -0.00464181 0)
(0.115885 -0.00476611 0)
(0.116672 -0.00488777 0)
(0.117462 -0.00500655 0)
(0.118253 -0.00512223 0)
(0.119044 -0.00523456 0)
(0.119835 -0.00534326 0)
(0.120624 -0.00544805 0)
(0.121411 -0.00554859 0)
(0.122195 -0.00564457 0)
(0.122975 -0.00573561 0)
(0.123749 -0.00582133 0)
(0.124518 -0.0059013 0)
(0.12528 -0.00597508 0)
(0.126035 -0.00604219 0)
(0.126781 -0.00610209 0)
(0.127519 -0.00615425 0)
(0.128246 -0.00619803 0)
(0.128963 -0.00623279 0)
(0.129669 -0.00625781 0)
(0.130362 -0.00627232 0)
(0.131044 -0.00627548 0)
(0.131712 -0.00626636 0)
(0.132366 -0.00624399 0)
(0.133006 -0.00620726 0)
(0.133632 -0.006155 0)
(0.134242 -0.00608592 0)
(0.134838 -0.00599865 0)
(0.135418 -0.00589166 0)
(0.135984 -0.00576333 0)
(0.136534 -0.00561191 0)
(0.13707 -0.00543554 0)
(0.137592 -0.00523223 0)
(0.138101 -0.0049999 0)
(0.1386 -0.00473639 0)
(0.139088 -0.0044395 0)
(0.139569 -0.00410701 0)
(0.140045 -0.00373682 0)
(0.14052 -0.00332694 0)
(0.140998 -0.00287569 0)
(0.141482 -0.00238178 0)
(0.141979 -0.0018445 0)
(0.142494 -0.00126381 0)
(0.143035 -0.00064042 0)
(0.143607 2.431e-05 0)
(0.144218 0.000726313 0)
(0.144874 0.00145918 0)
(0.14558 0.00221593 0)
(0.146343 0.00298787 0)
(0.147165 0.00376472 0)
(0.148048 0.00453489 0)
(0.148993 0.00528614 0)
(0.149993 0.00600647 0)
(0.151043 0.00668554 0)
(0.0999997 -0.000277348 0)
(0.100106 -0.00056192 0)
(0.100272 -0.000821616 0)
(0.100493 -0.001064 0)
(0.100765 -0.00129272 0)
(0.101085 -0.00151006 0)
(0.101449 -0.00171792 0)
(0.101852 -0.0019179 0)
(0.102292 -0.00211127 0)
(0.102764 -0.00229905 0)
(0.103267 -0.00248205 0)
(0.103799 -0.00266094 0)
(0.104355 -0.00283626 0)
(0.104936 -0.00300842 0)
(0.105538 -0.00317779 0)
(0.106161 -0.00334463 0)
(0.106802 -0.00350914 0)
(0.10746 -0.00367148 0)
(0.108133 -0.00383175 0)
(0.10882 -0.00399002 0)
(0.10952 -0.0041463 0)
(0.110232 -0.00430058 0)
(0.110953 -0.00445283 0)
(0.111684 -0.00460296 0)
(0.112423 -0.00475088 0)
(0.113169 -0.00489646 0)
(0.113921 -0.00503956 0)
(0.114677 -0.00518 0)
(0.115437 -0.00531759 0)
(0.1162 -0.00545212 0)
(0.116965 -0.00558335 0)
(0.117731 -0.00571102 0)
(0.118496 -0.00583486 0)
(0.119261 -0.00595457 0)
(0.120024 -0.00606982 0)
(0.120784 -0.00618028 0)
(0.121541 -0.00628557 0)
(0.122293 -0.0063853 0)
(0.12304 -0.00647907 0)
(0.123781 -0.00656641 0)
(0.124516 -0.00664685 0)
(0.125243 -0.00671988 0)
(0.125961 -0.00678496 0)
(0.126671 -0.00684149 0)
(0.127371 -0.00688886 0)
(0.12806 -0.00692638 0)
(0.128739 -0.00695333 0)
(0.129407 -0.00696894 0)
(0.130062 -0.00697236 0)
(0.130705 -0.00696269 0)
(0.131336 -0.00693898 0)
(0.131953 -0.00690017 0)
(0.132558 -0.00684517 0)
(0.133149 -0.00677278 0)
(0.133727 -0.00668174 0)
(0.134291 -0.00657071 0)
(0.134843 -0.00643828 0)
(0.135383 -0.00628296 0)
(0.135911 -0.00610324 0)
(0.136428 -0.00589754 0)
(0.136937 -0.00566428 0)
(0.137437 -0.0054019 0)
(0.137932 -0.0051089 0)
(0.138423 -0.00478391 0)
(0.138914 -0.00442575 0)
(0.139406 -0.00403348 0)
(0.139905 -0.00360657 0)
(0.140413 -0.00314494 0)
(0.140935 -0.0026491 0)
(0.141476 -0.00212027 0)
(0.142041 -0.0015604 0)
(0.142633 -0.000972184 0)
(0.14326 -0.000358859 0)
(0.143924 0.000275235 0)
(0.144628 0.000922938 0)
(0.145375 0.00157639 0)
(0.146166 0.00222786 0)
(0.147 0.00286917 0)
(0.147875 0.00349223 0)
(0.148788 0.00408948 0)
(0.149734 0.00465482 0)
(0.099996 -0.000304251 0)
(0.100101 -0.000618746 0)
(0.100261 -0.000906692 0)
(0.100474 -0.00117585 0)
(0.100737 -0.00143015 0)
(0.101046 -0.00167195 0)
(0.101398 -0.00190328 0)
(0.101789 -0.00212584 0)
(0.102215 -0.00234101 0)
(0.102673 -0.00254989 0)
(0.103161 -0.00275339 0)
(0.103676 -0.00295222 0)
(0.104217 -0.00314698 0)
(0.10478 -0.00333814 0)
(0.105365 -0.00352608 0)
(0.105969 -0.0037111 0)
(0.106591 -0.00389343 0)
(0.107229 -0.00407324 0)
(0.107882 -0.00425063 0)
(0.108548 -0.00442568 0)
(0.109227 -0.00459841 0)
(0.109916 -0.00476881 0)
(0.110615 -0.00493682 0)
(0.111323 -0.00510237 0)
(0.112038 -0.00526535 0)
(0.11276 -0.00542562 0)
(0.113486 -0.00558301 0)
(0.114217 -0.00573735 0)
(0.114952 -0.0058884 0)
(0.115688 -0.00603595 0)
(0.116426 -0.00617973 0)
(0.117165 -0.00631946 0)
(0.117903 -0.00645484 0)
(0.118639 -0.00658555 0)
(0.119374 -0.00671124 0)
(0.120105 -0.00683155 0)
(0.120833 -0.00694607 0)
(0.121556 -0.0070544 0)
(0.122274 -0.0071561 0)
(0.122985 -0.00725068 0)
(0.12369 -0.00733766 0)
(0.124387 -0.0074165 0)
(0.125076 -0.00748665 0)
(0.125756 -0.0075475 0)
(0.126427 -0.00759843 0)
(0.127088 -0.00763875 0)
(0.127739 -0.00766776 0)
(0.128379 -0.00768468 0)
(0.129008 -0.00768872 0)
(0.129625 -0.00767902 0)
(0.130231 -0.00765467 0)
(0.130825 -0.00761472 0)
(0.131407 -0.00755817 0)
(0.131978 -0.00748396 0)
(0.132537 -0.00739101 0)
(0.133085 -0.00727817 0)
(0.133622 -0.00714431 0)
(0.13415 -0.00698825 0)
(0.134669 -0.00680883 0)
(0.13518 -0.00660491 0)
(0.135684 -0.00637542 0)
(0.136184 -0.00611937 0)
(0.136681 -0.00583591 0)
(0.137178 -0.00552438 0)
(0.137676 -0.00518437 0)
(0.138178 -0.00481576 0)
(0.138688 -0.00441883 0)
(0.139209 -0.00399431 0)
(0.139743 -0.00354345 0)
(0.140295 -0.00306807 0)
(0.140867 -0.00257063 0)
(0.141463 -0.00205419 0)
(0.142085 -0.00152239 0)
(0.142737 -0.000979269 0)
(0.14342 -0.000428854 0)
(0.144136 0.000123981 0)
(0.144884 0.000673029 0)
(0.145662 0.00121124 0)
(0.146469 0.00173303 0)
(0.1473 0.00223357 0)
(0.148152 0.00270927 0)
(0.0999921 -0.000331872 0)
(0.100095 -0.000677113 0)
(0.10025 -0.000994256 0)
(0.100454 -0.00129116 0)
(0.100707 -0.001572 0)
(0.101006 -0.00183924 0)
(0.101345 -0.00209498 0)
(0.101722 -0.00234104 0)
(0.102134 -0.00257889 0)
(0.102576 -0.00280974 0)
(0.103048 -0.00303454 0)
(0.103546 -0.00325409 0)
(0.104069 -0.00346902 0)
(0.104614 -0.00367987 0)
(0.105179 -0.00388705 0)
(0.105763 -0.00409087 0)
(0.106364 -0.00429159 0)
(0.106981 -0.0044894 0)
(0.107612 -0.00468441 0)
(0.108256 -0.0048767 0)
(0.108911 -0.00506629 0)
(0.109577 -0.00525318 0)
(0.110251 -0.0054373 0)
(0.110934 -0.00561857 0)
(0.111623 -0.00579686 0)
(0.112318 -0.00597203 0)
(0.113018 -0.0061439 0)
(0.113721 -0.00631226 0)
(0.114428 -0.00647687 0)
(0.115136 -0.0066375 0)
(0.115845 -0.00679385 0)
(0.116554 -0.00694563 0)
(0.117262 -0.00709251 0)
(0.117969 -0.00723415 0)
(0.118673 -0.00737019 0)