/*--------------------------------*- C++ -*----------------------------------*\
| =========                 |                                                 |
| \\      /  F ield         | OpenFOAM: The Open Source CFD Toolbox           |
|  \\    /   O peration     | Version:  2106                                  |
|   \\  /    A nd           | Website:  www.openfoam.com                      |
|    \\/     M anipulation  |                                                 |
\*---------------------------------------------------------------------------*/
FoamFile
{
    version     2.0;
    format      ascii;
    arch        "LSB;label=32;scalar=64";
    class       surfaceScalarField;
    location    "5.6";
    object      phi;
}
// * * * * * * * * * * * * * * * * * * * * * * * * * * * * * * * * * * * * * //

dimensions      [1 0 -1 0 0 0 0];

oriented        oriented;

internalField   nonuniform List<scalar> 
23692
(
9.31766e-05
-9.7115e-08
9.33522e-05
-1.75639e-07
9.35977e-05
-2.45479e-07
9.39047e-05
-3.06912e-07
9.42667e-05
-3.61899e-07
9.46784e-05
-4.11642e-07
9.51354e-05
-4.56934e-07
9.5634e-05
-4.98412e-07
9.61707e-05
-5.36571e-07
9.67426e-05
-5.71795e-07
9.73471e-05
-6.04406e-07
9.7982e-05
-6.34664e-07
9.86449e-05
-6.62784e-07
9.9334e-05
-6.88948e-07
0.000100048
-7.13308e-07
0.000100784
-7.35995e-07
0.000101541
-7.57114e-07
0.000102318
-7.76761e-07
0.000103113
-7.95015e-07
0.000103925
-8.11943e-07
0.000104753
-8.27606e-07
0.000105596
-8.42048e-07
0.000106451
-8.55319e-07
0.000107319
-8.67452e-07
0.000108197
-8.7848e-07
0.000109086
-8.88427e-07
0.000109984
-8.97321e-07
0.000110889
-9.05177e-07
0.000111801
-9.12013e-07
0.000112719
-9.17843e-07
0.000113642
-9.22679e-07
0.000114569
-9.26524e-07
0.000115499
-9.29389e-07
0.00011643
-9.31274e-07
0.000117363
-9.32182e-07
0.000118295
-9.3211e-07
0.000119226
-9.31055e-07
0.000120155
-9.29009e-07
0.000121082
-9.25963e-07
0.000122004
-9.21905e-07
0.000122921
-9.16817e-07
0.000123832
-9.10681e-07
0.000124735
-9.03469e-07
0.000125631
-8.95154e-07
0.000126516
-8.857e-07
0.000127392
-8.75065e-07
0.000128255
-8.632e-07
0.000129105
-8.50046e-07
0.000129941
-8.35535e-07
0.000130761
-8.19587e-07
0.000131563
-8.02107e-07
0.000132346
-7.82984e-07
0.000133108
-7.62088e-07
0.000133848
-7.39262e-07
0.000134562
-7.14324e-07
0.000135249
-6.87055e-07
0.000135906
-6.57192e-07
0.000136531
-6.24423e-07
0.000137119
-5.88367e-07
0.000137668
-5.4856e-07
0.000138173
-5.04436e-07
0.000138628
-4.55292e-07
0.000139028
-4.00255e-07
0.000139366
-3.3822e-07
0.000139634
-2.67783e-07
0.000139821
-1.87131e-07
0.000139915
-9.38945e-08
0.0001399
1.5051e-08
0.000139756
1.4406e-07
0.000139457
2.99106e-07
0.000138969
4.88731e-07
0.000138243
7.25332e-07
0.000137216
1.02744e-06
0.000135792
1.42355e-06
0.000133834
1.9588e-06
0.000131127
2.7067e-06
0.000127337
3.78987e-06
0.000121918
5.41853e-06
0.000113938
7.98e-06
0.00010167
1.22686e-05
2.05626e-05
8.11073e-05
9.97003e-05
-1.98459e-07
9.98873e-05
-3.62517e-07
0.000100149
-5.07306e-07
0.000100477
-6.34436e-07
0.000100863
-7.48275e-07
0.000101303
-8.51236e-07
0.000101791
-9.44979e-07
0.000102324
-1.03082e-06
0.000102897
-1.10978e-06
0.000103508
-1.18267e-06
0.000104154
-1.25014e-06
0.000104832
-1.31274e-06
0.00010554
-1.37091e-06
0.000106277
-1.42504e-06
0.000107039
-1.47542e-06
0.000107825
-1.52234e-06
0.000108635
-1.56602e-06
0.000109465
-1.60664e-06
0.000110314
-1.64438e-06
0.000111182
-1.67938e-06
0.000112066
-1.71175e-06
0.000112966
-1.74161e-06
0.00011388
-1.76903e-06
0.000114807
-1.79409e-06
0.000115746
-1.81687e-06
0.000116695
-1.83741e-06
0.000117654
-1.85577e-06
0.000118621
-1.87198e-06
0.000119595
-1.88608e-06
0.000120575
-1.89809e-06
0.000121561
-1.90804e-06
0.000122551
-1.91595e-06
0.000123543
-1.92182e-06
0.000124538
-1.92567e-06
0.000125534
-1.92749e-06
0.000126529
-1.92729e-06
0.000127523
-1.92505e-06
0.000128515
-1.92076e-06
0.000129504
-1.9144e-06
0.000130488
-1.90595e-06
0.000131467
-1.89536e-06
0.000132439
-1.88261e-06
0.000133403
-1.86764e-06
0.000134359
-1.85038e-06
0.000135304
-1.83077e-06
0.000136238
-1.80872e-06
0.000137159
-1.78413e-06
0.000138066
-1.75688e-06
0.000138957
-1.72683e-06
0.000139832
-1.69382e-06
0.000140687
-1.65765e-06
0.000141523
-1.61809e-06
0.000142336
-1.57488e-06
0.000143124
-1.52771e-06
0.000143886
-1.4762e-06
0.000144619
-1.4199e-06
0.00014532
-1.35829e-06
0.000145987
-1.29073e-06
0.000146615
-1.21645e-06
0.000147201
-1.13451e-06
0.00014774
-1.04378e-06
0.000148228
-9.42852e-07
0.000148658
-8.29977e-07
0.000149023
-7.02963e-07
0.000149314
-5.59029e-07
0.000149521
-3.9461e-07
0.000149633
-2.0508e-07
0.000149632
1.56338e-08
0.0001495
2.75762e-07
0.000149213
5.86547e-07
0.000148738
9.63723e-07
0.000148034
1.42962e-06
0.000147045
2.01661e-06
0.000145696
2.77265e-06
0.000143884
3.76999e-06
0.000141472
5.11893e-06
0.000138274
6.9877e-06
0.000134064
9.62863e-06
0.000128631
1.34128e-05
0.000122107
1.87926e-05
2.55785e-05
0.000117091
0.00010668
-3.03414e-07
0.000106878
-5.60386e-07
0.000107156
-7.85276e-07
0.000107505
-9.82859e-07
0.000107916
-1.15971e-06
0.000108384
-1.31962e-06
0.000108905
-1.46518e-06
0.000109473
-1.59845e-06
0.000110084
-1.72102e-06
0.000110736
-1.83415e-06
0.000111424
-1.93886e-06
0.000112148
-2.03599e-06
0.000112903
-2.12625e-06
0.000113689
-2.21021e-06
0.000114502
-2.28836e-06
0.000115341
-2.36112e-06
0.000116204
-2.42884e-06
0.000117089
-2.49182e-06
0.000117996
-2.55032e-06
0.000118921
-2.60455e-06
0.000119864
-2.6547e-06
0.000120824
-2.70094e-06
0.000121798
-2.7434e-06
0.000122787
-2.78219e-06
0.000123788
-2.81743e-06
0.0001248
-2.8492e-06
0.000125822
-2.87757e-06
0.000126853
-2.9026e-06
0.000127891
-2.92435e-06
0.000128936
-2.94287e-06
0.000129987
-2.95818e-06
0.000131041
-2.97031e-06
0.000132099
-2.97928e-06
0.000133159
-2.98511e-06
0.000134219
-2.98779e-06
0.00013528
-2.98733e-06
0.000136339
-2.9837e-06
0.000137395
-2.9769e-06
0.000138448
-2.96688e-06
0.000139495
-2.9536e-06
0.000140537
-2.93703e-06
0.000141572
-2.91709e-06
0.000142598
-2.89371e-06
0.000143615
-2.86679e-06
0.000144621
-2.83623e-06
0.000145614
-2.80189e-06
0.000146594
-2.76361e-06
0.000147558
-2.72123e-06
0.000148506
-2.67452e-06
0.000149436
-2.62323e-06
0.000150345
-2.56707e-06
0.000151233
-2.50571e-06
0.000152097
-2.43872e-06
0.000152935
-2.36564e-06
0.000153745
-2.2859e-06
0.000154524
-2.19883e-06
0.000155269
-2.10363e-06
0.000155978
-1.99935e-06
0.000156646
-1.88485e-06
0.000157271
-1.75873e-06
0.000157846
-1.6193e-06
0.000158368
-1.4645e-06
0.00015883
-1.29175e-06
0.000159225
-1.09788e-06
0.000159545
-8.78867e-07
0.00015978
-6.29608e-07
0.000159918
-3.43561e-07
0.000159946
-1.22708e-08
0.000159847
3.75474e-07
0.000159599
8.34568e-07
0.000159177
1.3854e-06
0.000158551
2.05587e-06
0.000157683
2.8847e-06
0.000156529
3.92608e-06
0.000155043
5.25613e-06
0.000153181
6.98078e-06
0.000150926
9.24288e-06
0.000148334
1.22204e-05
0.000145654
1.6093e-05
0.000143571
2.08759e-05
2.58384e-05
0.000143311
0.000114148
-4.11713e-07
0.000114357
-7.68727e-07
0.000114651
-1.0792e-06
0.00011502
-1.35229e-06
0.000115457
-1.59661e-06
0.000115955
-1.81744e-06
0.000116508
-2.01841e-06
0.000117112
-2.20238e-06
0.000117763
-2.37153e-06
0.000118457
-2.52763e-06
0.00011919
-2.67208e-06
0.00011996
-2.80605e-06
0.000120765
-2.93052e-06
0.000121601
-3.04627e-06
0.000122467
-3.154e-06
0.00012336
-3.25427e-06
0.000124279
-3.34758e-06
0.000125222
-3.43433e-06
0.000126187
-3.51488e-06
0.000127172
-3.58953e-06
0.000128176
-3.65855e-06
0.000129198
-3.72215e-06
0.000130235
-3.78052e-06
0.000131287
-3.83384e-06
0.000132352
-3.88224e-06
0.000133429
-3.92584e-06
0.000134517
-3.96474e-06
0.000135613
-3.99904e-06
0.000136718
-4.0288e-06
0.00013783
-4.05408e-06
0.000138947
-4.07494e-06
0.000140068
-4.09141e-06
0.000141193
-4.10351e-06
0.000142319
-4.11127e-06
0.000143446
-4.11468e-06
0.000144573
-4.11375e-06
0.000145698
-4.10846e-06
0.00014682
-4.09878e-06
0.000147938
-4.08466e-06
0.000149051
-4.06606e-06
0.000150157
-4.04291e-06
0.000151255
-4.01512e-06
0.000152344
-3.98259e-06
0.000153423
-3.94519e-06
0.00015449
-3.90278e-06
0.000155543
-3.85518e-06
0.000156582
-3.80218e-06
0.000157604
-3.74354e-06
0.000158609
-3.67897e-06
0.000159594
-3.60813e-06
0.000160558
-3.53065e-06
0.000161498
-3.44605e-06
0.000162413
-3.35379e-06
0.000163301
-3.25325e-06
0.000164159
-3.14368e-06
0.000164985
-3.02419e-06
0.000165775
-2.89372e-06
0.000166527
-2.75105e-06
0.000167237
-2.59465e-06
0.000167901
-2.42275e-06
0.000168515
-2.23315e-06
0.000169073
-2.02321e-06
0.000169571
-1.78969e-06
0.000170002
-1.52857e-06
0.000170358
-1.23487e-06
0.000170631
-9.0236e-07
0.000170811
-5.23146e-07
0.000170886
-8.72338e-08
0.000170843
4.18146e-07
0.000170668
1.00951e-06
0.000170345
1.70863e-06
0.000169857
2.544e-06
0.000169189
3.55294e-06
0.000168331
4.78417e-06
0.000167286
6.30018e-06
0.000166089
8.17841e-06
0.000164824
1.05073e-05
0.000163676
1.3369e-05
0.000162978
1.67908e-05
0.000163233
2.06207e-05
2.42673e-05
0.000164804
0.000122139
-5.23225e-07
0.000122357
-9.87108e-07
0.000122667
-1.38885e-06
0.000123058
-1.74272e-06
0.00012352
-2.05923e-06
0.000124048
-2.3452e-06
0.000124635
-2.6054e-06
0.000125276
-2.8435e-06
0.000125967
-3.06238e-06
0.000126704
-3.26432e-06
0.000127484
-3.45114e-06
0.000128302
-3.62437e-06
0.000129157
-3.78526e-06
0.000130046
-3.93486e-06
0.000130966
-4.07404e-06
0.000131916
-4.20355e-06
0.000132892
-4.32402e-06
0.000133894
-4.43599e-06
0.00013492
-4.53993e-06
0.000135967
-4.63621e-06
0.000137034
-4.72518e-06
0.000138119
-4.80712e-06
0.000139221
-4.88229e-06
0.000140338
-4.9509e-06
0.00014147
-5.01314e-06
0.000142613
-5.06915e-06
0.000143768
-5.11907e-06
0.000144932
-5.16302e-06
0.000146105
-5.20109e-06
0.000147284
-5.23336e-06
0.00014847
-5.2599e-06
0.000149659
-5.28075e-06
0.000150852
-5.29594e-06
0.000152046
-5.3055e-06
0.000153242
-5.30945e-06
0.000154436
-5.30777e-06
0.000155628
-5.30044e-06
0.000156817
-5.28743e-06
0.000158001
-5.2687e-06
0.00015918
-5.24417e-06
0.000160351
-5.21376e-06
0.000161513
-5.17737e-06
0.000162666
-5.13486e-06
0.000163807
-5.08608e-06
0.000164935
-5.03084e-06
0.000166049
-4.96893e-06
0.000167147
-4.90008e-06
0.000168228
-4.82399e-06
0.000169289
-4.74031e-06
0.00017033
-4.64863e-06
0.000171348
-4.54845e-06
0.000172341
-4.43921e-06
0.000173308
-4.32024e-06
0.000174246
-4.19078e-06
0.000175152
-4.04989e-06
0.000176024
-3.89652e-06
0.00017686
-3.72939e-06
0.000177656
-3.54699e-06
0.000178409
-3.34754e-06
0.000179116
-3.1289e-06
0.000179771
-2.88851e-06
0.000180371
-2.62329e-06
0.000180911
-2.3295e-06
0.000181385
-2.00258e-06
0.000181787
-1.63698e-06
0.000182111
-1.22584e-06
0.000182348
-7.60707e-07
0.000182492
-2.31115e-07
0.000182535
3.75801e-07
0.000182468
1.07594e-06
0.000182288
1.88937e-06
0.000181991
2.84093e-06
0.000181583
3.96094e-06
0.000181081
5.28565e-06
0.000180525
6.85649e-06
0.000179986
8.71713e-06
0.000179588
1.09053e-05
0.000179522
1.34351e-05
0.000180052
1.6261e-05
0.000181459
1.92138e-05
2.19089e-05
0.000183817
0.000130689
-6.37941e-07
0.000130917
-1.21519e-06
0.000131242
-1.71394e-06
0.000131654
-2.15401e-06
0.000132142
-2.54764e-06
0.0001327
-2.90321e-06
0.000133322
-3.22663e-06
0.000134001
-3.52252e-06
0.000134733
-3.79444e-06
0.000135514
-4.04523e-06
0.00013634
-4.27719e-06
0.000137208
-4.4922e-06
0.000138115
-4.69183e-06
0.000139058
-4.87739e-06
0.000140034
-5.04996e-06
0.000141041
-5.21049e-06
0.000142078
-5.35976e-06
0.00014314
-5.49843e-06
0.000144228
-5.62708e-06
0.000145338
-5.74621e-06
0.000146469
-5.85622e-06
0.00014762
-5.95749e-06
0.000148788
-6.05032e-06
0.000149973
-6.13497e-06
0.000151172
-6.21168e-06
0.000152384
-6.28065e-06
0.000153607
-6.34203e-06
0.00015484
-6.39598e-06
0.000156082
-6.44261e-06
0.000157331
-6.48202e-06
0.000158586
-6.5143e-06
0.000159845
-6.5395e-06
0.000161107
-6.55767e-06
0.00016237
-6.56884e-06
0.000163634
-6.57302e-06
0.000164897
-6.57021e-06
0.000166157
-6.5604e-06
0.000167414
-6.54353e-06
0.000168665
-6.51957e-06
0.000169909
-6.48841e-06
0.000171146
-6.44998e-06
0.000172373
-6.40414e-06
0.000173589
-6.35073e-06
0.000174793
-6.28958e-06
0.000175983
-6.22047e-06
0.000177157
-6.14313e-06
0.000178315
-6.05726e-06
0.000179453
-5.96251e-06
0.000180572
-5.85846e-06
0.000181668
-5.74461e-06
0.00018274
-5.62041e-06
0.000183786
-5.48518e-06
0.000184804
-5.33817e-06
0.000185792
-5.17847e-06
0.000186747
-5.00503e-06
0.000187668
-4.81663e-06
0.00018855
-4.61181e-06
0.000189392
-4.38889e-06
0.000190191
-4.14587e-06
0.000190942
-3.88039e-06
0.000191643
-3.58964e-06
0.000192291
-3.27031e-06
0.00019288
-2.91841e-06
0.000193406
-2.52921e-06
0.000193866
-2.097e-06
0.000194256
-1.61495e-06
0.00019457
-1.07485e-06
0.000194806
-4.66851e-07
0.000194961
2.20679e-07
0.000195035
1.00125e-06
0.000195034
1.89084e-06
0.000194967
2.90808e-06
0.000194854
4.07372e-06
0.00019473
5.40967e-06
0.00019465
6.93695e-06
0.000194695
8.67151e-06
0.000194984
1.06169e-05
0.000195667
1.2752e-05
0.000196916
1.50115e-05
0.00019887
1.72603e-05
1.92709e-05
0.000201508
0.000139838
-7.5594e-07
0.000140075
-1.45271e-06
0.000140416
-2.05427e-06
0.000140848
-2.58599e-06
0.000141362
-3.06184e-06
0.000141951
-3.49162e-06
0.000142607
-3.88246e-06
0.000143324
-4.23993e-06
0.000144098
-4.56835e-06
0.000144924
-4.87115e-06
0.000145799
-5.15112e-06
0.000146717
-5.41054e-06
0.000147677
-5.65131e-06
0.000148675
-5.87502e-06
0.000149708
-6.083e-06
0.000150774
-6.27637e-06
0.000151871
-6.45609e-06
0.000152996
-6.62296e-06
0.000154147
-6.7777e-06
0.000155322
-6.92088e-06
0.000156519
-7.05303e-06
0.000157736
-7.17458e-06
0.000158972
-7.2859e-06
0.000160225
-7.38732e-06
0.000161493
-7.47911e-06
0.000162774
-7.56153e-06
0.000164067
-7.63476e-06
0.00016537
-7.69899e-06
0.000166683
-7.75437e-06
0.000168002
-7.80101e-06
0.000169327
-7.83901e-06
0.000170656
-7.86846e-06
0.000171988
-7.8894e-06
0.000173322
-7.90189e-06
0.000174655
-7.90594e-06
0.000175987
-7.90155e-06
0.000177315
-7.8887e-06
0.000178639
-7.86735e-06
0.000179958
-7.83745e-06
0.000181268
-7.79889e-06
0.00018257
-7.75158e-06
0.000183862
-7.69536e-06
0.000185141
-7.63008e-06
0.000186408
-7.55551e-06
0.000187659
-7.47142e-06
0.000188893
-7.3775e-06
0.00019011
-7.27342e-06
0.000191306
-7.15877e-06
0.000192481
-7.03309e-06
0.000193633
-6.89583e-06
0.000194759
-6.74636e-06
0.000195858
-6.58394e-06
0.000196927
-6.40772e-06
0.000197966
-6.21673e-06
0.000198971
-6.0098e-06
0.00019994
-5.78561e-06
0.000200871
-5.54262e-06
0.000201761
-5.27903e-06
0.000202608
-4.99272e-06
0.000203409
-4.68127e-06
0.000204161
-4.3418e-06
0.000204862
-3.97098e-06
0.000205509
-3.56488e-06
0.000206098
-3.11894e-06
0.000206629
-2.62781e-06
0.0002071
-2.08526e-06
0.000207509
-1.48408e-06
0.000207858
-8.15968e-07
0.00020815
-7.15312e-08
0.000208392
7.59518e-07
0.000208595
1.68772e-06
0.000208779
2.72475e-06
0.000208971
3.88183e-06
0.000209212
5.1684e-06
0.000209559
6.58988e-06
0.000210086
8.14429e-06
0.000210886
9.81738e-06
0.000212062
1.15761e-05
0.000213713
1.33604e-05
0.000215897
1.50766e-05
1.65969e-05
0.000218571
0.000149627
-8.77359e-07
0.000149874
-1.69948e-06
0.000150229
-2.40962e-06
0.000150682
-3.03847e-06
0.000151222
-3.6017e-06
0.000151841
-4.11043e-06
0.000152532
-4.57302e-06
0.000153288
-4.99602e-06
0.000154104
-5.38453e-06
0.000154976
-5.74261e-06
0.000155899
-6.07357e-06
0.000156868
-6.38012e-06
0.000157882
-6.66452e-06
0.000158936
-6.92864e-06
0.000160027
-7.17407e-06
0.000161153
-7.40214e-06
0.000162312
-7.614e-06
0.0001635
-7.8106e-06
0.000164715
-7.99278e-06
0.000165956
-8.16124e-06
0.00016722
-8.31659e-06
0.000168505
-8.45935e-06
0.000169809
-8.58996e-06
0.000171131
-8.70883e-06
0.000172469
-8.81627e-06
0.00017382
-8.91257e-06
0.000175184
-8.99799e-06
0.000176558
-9.07272e-06
0.000177941
-9.13696e-06
0.000179331
-9.19083e-06
0.000180727
-9.23447e-06
0.000182127
-9.26798e-06
0.000183529
-9.29142e-06
0.000184932
-9.30485e-06
0.000186335
-9.3083e-06
0.000187736
-9.30178e-06
0.000189133
-9.28527e-06
0.000190524
-9.25873e-06
0.000191909
-9.22209e-06
0.000193286
-9.17527e-06
0.000194653
-9.11815e-06
0.000196008
-9.05058e-06
0.000197351
-8.97236e-06
0.000198679
-8.88328e-06
0.000199991
-8.78307e-06
0.000201285
-8.67141e-06
0.00020256
-8.54793e-06
0.000203814
-8.4122e-06
0.000205044
-8.26371e-06
0.000206251
-8.10188e-06
0.000207431
-7.92604e-06
0.000208582
-7.73541e-06
0.000209704
-7.52909e-06
0.000210793
-7.30606e-06
0.000211849
-7.06513e-06
0.000212868
-6.80493e-06
0.00021385
-6.5239e-06
0.000214791
-6.22022e-06
0.00021569
-5.89184e-06
0.000216546
-5.53635e-06
0.000217355
-5.15105e-06
0.000218117
-4.7328e-06
0.00021883
-4.27804e-06
0.000219494
-3.78273e-06
0.000220109
-3.24228e-06
0.000220675
-2.65157e-06
0.000221196
-2.00494e-06
0.000221676
-1.29621e-06
0.000222124
-5.1882e-07
0.000222549
3.33971e-07
0.000222969
1.26778e-06
0.000223406
2.28755e-06
0.000223891
3.39679e-06
0.000224464
4.59593e-06
0.000225173
5.88068e-06
0.000226078
7.23991e-06
0.000227242
8.65316e-06
0.00022873
1.0088e-05
0.000230592
1.1498e-05
0.000232847
1.28224e-05
1.39912e-05
0.000235452
0.000160102
-1.00236e-06
0.000160358
-1.95539e-06
0.000160728
-2.77983e-06
0.000161201
-3.51122e-06
0.000161767
-4.16702e-06
0.000162416
-4.75952e-06
0.000163141
-5.29828e-06
0.000163936
-5.79085e-06
0.000164795
-6.24314e-06
0.000165713
-6.65988e-06
0.000166684
-7.0449e-06
0.000167706
-7.40138e-06
0.000168773
-7.73194e-06
0.000169884
-8.03878e-06
0.000171034
-8.32375e-06
0.00017222
-8.58842e-06
0.000173441
-8.83412e-06
0.000174693
-9.06197e-06
0.000175973
-9.27294e-06
0.00017728
-9.46787e-06
0.000178611
-9.64747e-06
0.000179965
-9.81234e-06
0.000181338
-9.96302e-06
0.00018273
-1.01e-05
0.000184138
-1.02235e-05
0.00018556
-1.03341e-05
0.000186994
-1.0432e-05
0.000188439
-1.05174e-05
0.000189893
-1.05905e-05
0.000191354
-1.06515e-05
0.000192821
-1.07006e-05
0.000194291
-1.07379e-05
0.000195764
-1.07635e-05
0.000197236
-1.07774e-05
0.000198708
-1.07797e-05
0.000200177
-1.07704e-05
0.000201642
-1.07495e-05
0.000203101
-1.0717e-05
0.000204552
-1.06728e-05
0.000205993
-1.06168e-05
0.000207424
-1.05488e-05
0.000208843
-1.04689e-05
0.000210248
-1.03766e-05
0.000211637
-1.02719e-05
0.000213008
-1.01545e-05
0.000214361
-1.00239e-05
0.000215693
-9.87991e-06
0.000217003
-9.72197e-06
0.00021829
-9.54961e-06
0.00021955
-9.36222e-06
0.000220783
-9.15912e-06
0.000221988
-8.93954e-06
0.000223161
-8.70256e-06
0.000224303
-8.44717e-06
0.00022541
-8.17221e-06
0.000226482
-7.87635e-06
0.000227516
-7.55811e-06
0.000228512
-7.21577e-06
0.000229467
-6.84742e-06
0.000230382
-6.45091e-06
0.000231255
-6.02384e-06
0.000232086
-5.56352e-06
0.000232875
-5.06699e-06
0.000233623
-4.531e-06
0.000234333
-3.95205e-06
0.000235008
-3.32644e-06
0.000235654
-2.65034e-06
0.000236277
-1.9199e-06
0.00023689
-1.13148e-06
0.000237506
-2.81726e-07
0.000238142
6.31396e-07
0.000238822
1.60751e-06
0.000239575
2.64459e-06
0.000240433
3.73769e-06
0.000241436
4.87779e-06
0.000242625
6.05076e-06
0.000244042
7.23645e-06
0.000245722
8.40818e-06
0.000247687
9.5329e-06
0.000249936
1.0573e-05
1.14903e-05
0.000252437
0.00017131
-1.13111e-06
0.000171575
-2.22033e-06
0.00017196
-3.16471e-06
0.000172453
-4.00401e-06
0.000173044
-4.75752e-06
0.000173723
-5.43863e-06
0.000174483
-6.05804e-06
0.000175317
-6.62429e-06
0.000176218
-7.14412e-06
0.000177181
-7.62293e-06
0.000178202
-8.06515e-06
0.000179275
-8.47439e-06
0.000180397
-8.8537e-06
0.000181564
-9.2056e-06
0.000182773
-9.53223e-06
0.00018402
-9.83539e-06
0.000185303
-1.01166e-05
0.000186619
-1.03772e-05
0.000187965
-1.06184e-05
0.000189338
-1.08409e-05
0.000190737
-1.10458e-05
0.000192159
-1.12336e-05
0.000193601
-1.14051e-05
0.000195062
-1.15607e-05
0.00019654
-1.17008e-05
0.000198032
-1.1826e-05
0.000199537
-1.19365e-05
0.000201053
-1.20326e-05
0.000202577
-1.21146e-05
0.000204109
-1.21826e-05
0.000205646
-1.22369e-05
0.000207186
-1.22776e-05
0.000208728
-1.23049e-05
0.000210269
-1.23187e-05
0.000211809
-1.23192e-05
0.000213346
-1.23064e-05
0.000214877
-1.22803e-05
0.000216401
-1.2241e-05
0.000217917
-1.21882e-05
0.000219423
-1.2122e-05
0.000220916
-1.20423e-05
0.000222397
-1.19488e-05
0.000223862
-1.18415e-05
0.00022531
-1.17201e-05
0.000226741
-1.15843e-05
0.000228151
-1.14337e-05
0.000229539
-1.12681e-05
0.000230905
-1.1087e-05
0.000232245
-1.08899e-05
0.000233559
-1.06762e-05
0.000234846
-1.04452e-05
0.000236103
-1.01962e-05
0.000237329
-9.92844e-06
0.000238523
-9.64084e-06
0.000239683
-9.33238e-06
0.000240809
-9.00186e-06
0.000241899
-8.64795e-06
0.000242952
-8.26917e-06
0.000243969
-7.86388e-06
0.000244948
-7.43031e-06
0.000245891
-6.96653e-06
0.000246798
-6.47046e-06
0.000247671
-5.93993e-06
0.000248513
-5.37267e-06
0.000249328
-4.7664e-06
0.00025012
-4.11894e-06
0.000250898
-3.42829e-06
0.000251671
-2.6928e-06
0.000252451
-1.91143e-06
0.000253254
-1.08384e-06
0.000254095
-2.1052e-07
0.000254997
7.05704e-07
0.000255983
1.6592e-06
0.000257078
2.64227e-06
0.000258312
3.64456e-06
0.00025971
4.65247e-06
0.000261297
5.64905e-06
0.000263091
6.61428e-06
0.000265098
7.52588e-06
0.00026731
8.36104e-06
9.09919e-06
0.000269701
0.000183303
-1.26374e-06
0.000183577
-2.4942e-06
0.000183977
-3.56407e-06
0.000184489
-4.51654e-06
0.000185105
-5.37284e-06
0.000185814
-6.14736e-06
0.000186608
-6.85188e-06
0.00018748
-7.49593e-06
0.000188423
-8.08708e-06
0.000189432
-8.63144e-06
0.000190501
-9.13399e-06
0.000191626
-9.59888e-06
0.000192802
-1.00295e-05
0.000194025
-1.04288e-05
0.000195293
-1.07992e-05
0.000196601
-1.11428e-05
0.000197946
-1.14612e-05
0.000199325
-1.17561e-05
0.000200736
-1.20286e-05
0.000202175
-1.228e-05
0.000203641
-1.2511e-05
0.00020513
-1.27227e-05
0.000206641
-1.29155e-05
0.000208171
-1.30903e-05
0.000209718
-1.32474e-05
0.00021128
-1.33874e-05
0.000212855
-1.35106e-05
0.00021444
-1.36174e-05
0.000216034
-1.37081e-05
0.000217635
-1.37829e-05
0.00021924
-1.3842e-05
0.000220849
-1.38857e-05
0.000222459
-1.39141e-05
0.000224068
-1.39272e-05
0.000225674
-1.39252e-05
0.000227276
-1.39081e-05
0.000228872
-1.3876e-05
0.00023046
-1.38288e-05
0.000232039
-1.37666e-05
0.000233607
-1.36892e-05
0.000235161
-1.35966e-05
0.000236702
-1.34886e-05
0.000238226
-1.33651e-05
0.000239732
-1.32259e-05
0.000241218
-1.30707e-05
0.000242684
-1.28992e-05
0.000244127
-1.27111e-05
0.000245547
-1.2506e-05
0.000246941
-1.22834e-05
0.000248308
-1.20429e-05
0.000249646
-1.17838e-05
0.000250956
-1.15054e-05
0.000252235
-1.1207e-05
0.000253482
-1.08879e-05
0.000254697
-1.0547e-05
0.000255879
-1.01835e-05
0.000257027
-9.79614e-06
0.000258142
-9.38387e-06
0.000259224
-8.94542e-06
0.000260273
-8.47948e-06
0.000261291
-7.98473e-06
0.000262281
-7.4598e-06
0.000263244
-6.90337e-06
0.000264186
-6.31422e-06
0.000265111
-5.6913e-06
0.000266026
-5.03382e-06
0.000266939
-4.34142e-06
0.000267861
-3.61426e-06
0.000268803
-2.85327e-06
0.000269779
-2.06024e-06
0.000270807
-1.23796e-06
0.000271903
-3.90065e-07
0.000273084
4.7744e-07
0.000274371
1.35618e-06
0.00027578
2.23557e-06
0.000277328
3.10427e-06
0.000279028
3.94916e-06
0.000280886
4.75601e-06
0.000282902
5.51038e-06
0.000285064
6.19867e-06
6.80988e-06
0.000287353
0.000196136
-1.40034e-06
0.000196419
-2.77689e-06
0.000196833
-3.97761e-06
0.000197365
-5.04841e-06
0.000198004
-6.01246e-06
0.000198742
-6.88514e-06
0.00019957
-7.67919e-06
0.000200479
-8.40512e-06
0.000201464
-9.07136e-06
0.000202517
-9.6847e-06
0.000203634
-1.02507e-05
0.00020481
-1.07741e-05
0.00020604
-1.12587e-05
0.000207319
-1.17077e-05
0.000208644
-1.2124e-05
0.000210011
-1.25097e-05
0.000211418
-1.28671e-05
0.00021286
-1.31976e-05
0.000214334
-1.35028e-05
0.000215839
-1.3784e-05
0.00021737
-1.40422e-05
0.000218926
-1.42783e-05
0.000220505
-1.44931e-05
0.000222102
-1.46874e-05
0.000223717
-1.48618e-05
0.000225347
-1.50167e-05
0.00022699
-1.51527e-05
0.000228643
-1.52701e-05
0.000230305
-1.53692e-05
0.000231973
-1.54504e-05
0.000233645
-1.5514e-05
0.00023532
-1.55601e-05
0.000236995
-1.55889e-05
0.000238669
-1.56006e-05
0.00024034
-1.55953e-05
0.000242005
-1.55731e-05
0.000243664
-1.5534e-05
0.000245313
-1.54781e-05
0.000246953
-1.54053e-05
0.00024858
-1.53157e-05
0.000250193
-1.52092e-05
0.00025179
-1.50856e-05
0.00025337
-1.49449e-05
0.000254932
-1.47869e-05
0.000256473
-1.46114e-05
0.000257992
-1.44182e-05
0.000259488
-1.42069e-05
0.00026096
-1.39772e-05
0.000262406
-1.37288e-05
0.000263824
-1.34612e-05
0.000265215
-1.3174e-05
0.000266576
-1.28666e-05
0.000267908
-1.25385e-05
0.000269209
-1.21889e-05
0.00027048
-1.18173e-05
0.000271719
-1.14229e-05
0.000272929
-1.1005e-05
0.000274108
-1.05628e-05
0.000275258
-1.00955e-05
0.000276381
-9.60235e-06
0.000277479
-9.08266e-06
0.000278555
-8.53581e-06
0.000279613
-7.96134e-06
0.000280658
-7.359e-06
0.000281696
-6.72882e-06
0.000282734
-6.07119e-06
0.000283779
-5.38702e-06
0.000284843
-4.67779e-06
0.000285935
-3.9457e-06
0.000287069
-3.19378e-06
0.000288257
-2.42595e-06
0.000289514
-1.64698e-06
0.000290854
-8.62265e-07
0.000292288
-7.83666e-08
0.000293828
6.96008e-07
0.000295481
1.45146e-06
0.000297252
2.17782e-06
0.000299143
2.86536e-06
0.000301148
3.50503e-06
0.000303258
4.0888e-06
4.61091e-06
0.000305457
0.000209868
-1.54095e-06
0.000210159
-3.06822e-06
0.000210586
-4.40497e-06
0.000211137
-5.59909e-06
0.000211801
-6.67571e-06
0.000212567
-7.65114e-06
0.000213427
-8.53905e-06
0.000214373
-9.35087e-06
0.000215398
-1.00959e-05
0.000216495
-1.07816e-05
0.000217659
-1.14142e-05
0.000218884
-1.19988e-05
0.000220165
-1.25399e-05
0.000221499
-1.30409e-05
0.00022288
-1.3505e-05
0.000224306
-1.39348e-05
0.000225772
-1.43326e-05
0.000227275
-1.47002e-05
0.000228812
-1.50393e-05
0.00023038
-1.53512e-05
0.000231975
-1.56373e-05
0.000233596
-1.58985e-05
0.000235239
-1.61359e-05
0.000236902
-1.635e-05
0.000238583
-1.65418e-05
0.000240279
-1.67117e-05
0.000241987
-1.68603e-05
0.000243705
-1.6988e-05
0.000245432
-1.70953e-05
0.000247165
-1.71825e-05
0.000248901
-1.72499e-05
0.000250639
-1.72978e-05
0.000252377
-1.73264e-05
0.000254113
-1.73359e-05
0.000255845
-1.73264e-05
0.00025757
-1.72981e-05
0.000259288
-1.72511e-05
0.000260996
-1.71854e-05
0.000262692
-1.71011e-05
0.000264375
-1.69983e-05
0.000266043
-1.68768e-05
0.000267695
-1.67367e-05
0.000269328
-1.65779e-05
0.000270942
-1.64003e-05
0.000272535
-1.62037e-05
0.000274105
-1.5988e-05
0.000275651
-1.5753e-05
0.000277173
-1.54985e-05
0.000278669
-1.52241e-05
0.000280137
-1.49297e-05
0.000281579
-1.46148e-05
0.000282991
-1.42792e-05
0.000284376
-1.39225e-05
0.000285731
-1.35442e-05
0.000287058
-1.3144e-05
0.000288357
-1.27214e-05
0.000289628
-1.22762e-05
0.000290874
-1.1808e-05
0.000292095
-1.13164e-05
0.000293294
-1.08013e-05
0.000294474
-1.02625e-05
0.000295639
-9.70032e-06
0.000296792
-9.11488e-06
0.00029794
-8.50679e-06
0.000299089
-7.87694e-06
0.000300244
-7.22663e-06
0.000301415
-6.5576e-06
0.000302609
-5.87213e-06
0.000303837
-5.17312e-06
0.000305107
-4.46407e-06
0.000306431
-3.74917e-06
0.000307817
-3.03322e-06
0.000309276
-2.32158e-06
0.000310818
-1.62006e-06
0.000312448
-9.34152e-07
0.00031417
-2.70342e-07
0.000315984
3.64395e-07
0.000317886
9.63269e-07
0.000319871
1.5203e-06
0.000321929
2.03068e-06
2.49124e-06
0.000324048
0.00022456
-1.68549e-06
0.00022486
-3.36788e-06
0.0002253
-4.84558e-06
0.000225869
-6.16784e-06
0.000226555
-7.36165e-06
0.000227349
-8.44426e-06
0.00022824
-9.43019e-06
0.000229221
-1.03318e-05
0.000230285
-1.11591e-05
0.000231424
-1.19205e-05
0.000232633
-1.26226e-05
0.000233906
-1.32713e-05
0.000235237
-1.38712e-05
0.000236623
-1.44264e-05
0.000238059
-1.49403e-05
0.000239541
-1.54158e-05
0.000241064
-1.58555e-05
0.000242626
-1.62614e-05
0.000244222
-1.66353e-05
0.000245851
-1.6979e-05
0.000247508
-1.72937e-05
0.00024919
-1.75805e-05
0.000250895
-1.78407e-05
0.000252621
-1.80749e-05
0.000254364
-1.82841e-05
0.000256122
-1.84689e-05
0.000257892
-1.863e-05
0.000259672
-1.87678e-05
0.00026146
-1.88828e-05
0.000263254
-1.89754e-05
0.000265051
-1.9046e-05
0.000266848
-1.9095e-05
0.000268645
-1.91225e-05
0.000270438
-1.91289e-05
0.000272227
-1.91143e-05
0.000274008
-1.9079e-05
0.000275781
-1.9023e-05
0.000277543
-1.89466e-05
0.000279292
-1.88499e-05
0.000281027
-1.87328e-05
0.000282746
-1.85954e-05
0.000284448
-1.84379e-05
0.00028613
-1.82602e-05
0.000287793
-1.80622e-05
0.000289434
-1.78439e-05
0.000291051
-1.76054e-05
0.000292645
-1.73464e-05
0.000294214
-1.7067e-05
0.000295757
-1.67669e-05
0.000297274
-1.64462e-05
0.000298764
-1.61045e-05
0.000300227
-1.57419e-05
0.000301663
-1.53581e-05
0.000303072
-1.49531e-05
0.000304455
-1.45268e-05
0.000305813
-1.40791e-05
0.000307148
-1.36101e-05
0.00030846
-1.31198e-05
0.000309752
-1.26085e-05
0.000311027
-1.20764e-05
0.000312289
-1.15241e-05
0.000313541
-1.09522e-05
0.000314788
-1.03617e-05
0.000316035
-9.75368e-06
0.000317288
-9.12972e-06
0.000318553
-8.49165e-06
0.000319838
-7.84171e-06
0.000321148
-7.18255e-06
0.000322492
-6.51726e-06
0.000323878
-5.84934e-06
0.000325312
-5.18272e-06
0.0003268
-4.52169e-06
0.000328349
-3.87081e-06
0.000329964
-3.23483e-06
0.000331649
-2.61847e-06
0.000333405
-2.02643e-06
0.000335232
-1.46265e-06
0.000337126
-9.30876e-07
0.000339081
-4.34582e-07
0.000341088
2.37072e-08
4.42258e-07
0.000343137
0.000240281
-1.83385e-06
0.000240589
-3.67548e-06
0.000241042
-5.2987e-06
0.000241628
-6.75365e-06
0.000242335
-8.069e-06
0.000243154
-9.26297e-06
0.000244075
-1.03509e-05
0.00024509
-1.13459e-05
0.00024619
-1.2259e-05
0.000247369
-1.30992e-05
0.00024862
-1.38737e-05
0.000249938
-1.45888e-05
0.000251317
-1.52499e-05
0.000252753
-1.58613e-05
0.00025424
-1.64268e-05
0.000255774
-1.69496e-05
0.000257352
-1.74324e-05
0.000258969
-1.78778e-05
0.000260621
-1.82876e-05
0.000262307
-1.86636e-05
0.000264021
-1.90074e-05
0.000265761
-1.93203e-05
0.000267525
-1.96035e-05
0.000269309
-1.98579e-05
0.00027111
-2.00845e-05
0.000272925
-2.0284e-05
0.000274753
-2.04571e-05
0.00027659
-2.06045e-05
0.000278435
-2.07266e-05
0.000280284
-2.08241e-05
0.000282136
-2.08972e-05
0.000283988
-2.09464e-05
0.000285838
-2.0972e-05
0.000287684
-2.09744e-05
0.000289524
-2.09538e-05
0.000291357
-2.09104e-05
0.000293179
-2.08446e-05
0.000294989
-2.07565e-05
0.000296786
-2.06462e-05
0.000298568
-2.0514e-05
0.000300333
-2.036e-05
0.00030208
-2.01842e-05
0.000303807
-1.99869e-05
0.000305513
-1.97681e-05
0.000307198
-1.95278e-05
0.000308859