/*--------------------------------*- C++ -*----------------------------------*\
| =========                 |                                                 |
| \\      /  F ield         | OpenFOAM: The Open Source CFD Toolbox           |
|  \\    /   O peration     | Version:  2106                                  |
|   \\  /    A nd           | Website:  www.openfoam.com                      |
|    \\/     M anipulation  |                                                 |
\*---------------------------------------------------------------------------*/
FoamFile
{
    version     2.0;
    format      ascii;
    arch        "LSB;label=32;scalar=64";
    class       volScalarField;
    location    "5.6";
    object      T;
}
// * * * * * * * * * * * * * * * * * * * * * * * * * * * * * * * * * * * * * //

dimensions      [0 0 0 1 0 0 0];

internalField   nonuniform List<scalar> 
12013
(
300.003
300.01
300.017
300.024
300.031
300.039
300.047
300.056
300.065
300.074
300.083
300.093
300.103
300.114
300.125
300.137
300.149
300.161
300.174
300.188
300.202
300.216
300.231
300.246
300.262
300.279
300.296
300.314
300.332
300.351
300.37
300.39
300.411
300.432
300.454
300.477
300.501
300.525
300.549
300.575
300.601
300.628
300.656
300.685
300.715
300.745
300.776
300.808
300.841
300.875
300.91
300.946
300.983
301.021
301.06
301.101
301.142
301.185
301.229
301.274
301.321
301.369
301.418
301.469
301.522
301.577
301.633
301.692
301.753
301.816
301.882
301.95
302.022
302.098
302.178
302.263
302.354
302.453
302.562
302.686
302.834
300.003
300.01
300.017
300.024
300.031
300.039
300.047
300.056
300.065
300.074
300.083
300.093
300.103
300.114
300.125
300.137
300.149
300.161
300.174
300.188
300.202
300.216
300.231
300.246
300.262
300.279
300.296
300.314
300.332
300.351
300.37
300.39
300.411
300.432
300.454
300.477
300.5
300.525
300.549
300.575
300.601
300.628
300.656
300.685
300.714
300.745
300.776
300.808
300.841
300.875
300.91
300.946
300.983
301.021
301.06
301.1
301.142
301.184
301.228
301.274
301.32
301.368
301.418
301.469
301.521
301.576
301.632
301.691
301.751
301.814
301.88
301.948
302.02
302.095
302.175
302.259
302.348
302.445
302.549
302.665
302.791
300.003
300.01
300.017
300.024
300.031
300.039
300.047
300.056
300.065
300.074
300.083
300.093
300.103
300.114
300.125
300.137
300.149
300.161
300.174
300.188
300.202
300.216
300.231
300.246
300.262
300.279
300.296
300.314
300.332
300.351
300.37
300.39
300.411
300.432
300.454
300.477
300.5
300.524
300.549
300.575
300.601
300.628
300.656
300.685
300.714
300.745
300.776
300.808
300.841
300.875
300.91
300.946
300.983
301.021
301.06
301.1
301.141
301.184
301.228
301.273
301.319
301.367
301.416
301.467
301.52
301.574
301.63
301.688
301.749
301.811
301.876
301.944
302.015
302.089
302.167
302.249
302.335
302.427
302.525
302.629
302.737
300.003
300.01
300.017
300.024
300.031
300.039
300.047
300.056
300.064
300.074
300.083
300.093
300.103
300.114
300.125
300.137
300.149
300.161
300.174
300.188
300.202
300.216
300.231
300.246
300.262
300.279
300.296
300.314
300.332
300.351
300.37
300.39
300.411
300.432
300.454
300.477
300.5
300.524
300.549
300.575
300.601
300.628
300.656
300.684
300.714
300.744
300.775
300.807
300.84
300.874
300.909
300.945
300.982
301.02
301.059
301.099
301.14
301.183
301.226
301.271
301.317
301.365
301.414
301.465
301.517
301.571
301.627
301.685
301.744
301.806
301.87
301.937
302.006
302.079
302.154
302.233
302.316
302.403
302.493
302.585
302.679
300.003
300.01
300.017
300.024
300.031
300.039
300.047
300.056
300.064
300.074
300.083
300.093
300.103
300.114
300.125
300.137
300.149
300.161
300.174
300.188
300.202
300.216
300.231
300.246
300.262
300.279
300.296
300.313
300.332
300.351
300.37
300.39
300.411
300.432
300.454
300.477
300.5
300.524
300.549
300.574
300.601
300.628
300.655
300.684
300.713
300.744
300.775
300.807
300.84
300.874
300.908
300.944
300.981
301.019
301.058
301.097
301.139
301.181
301.224
301.269
301.315
301.362
301.411
301.462
301.513
301.567
301.622
301.679
301.738
301.799
301.862
301.927
301.995
302.065
302.137
302.213
302.291
302.372
302.454
302.537
302.62
300.003
300.01
300.017
300.024
300.031
300.039
300.047
300.056
300.064
300.074
300.083
300.093
300.103
300.114
300.125
300.137
300.149
300.161
300.174
300.188
300.201
300.216
300.231
300.246
300.262
300.279
300.296
300.313
300.332
300.35
300.37
300.39
300.41
300.432
300.454
300.476
300.5
300.524
300.548
300.574
300.6
300.627
300.655
300.683
300.713
300.743
300.774
300.806
300.839
300.872
300.907
300.943
300.979
301.017
301.056
301.096
301.136
301.178
301.222
301.266
301.312
301.359
301.407
301.457
301.508
301.561
301.615
301.671
301.729
301.789
301.85
301.914
301.979
302.047
302.116
302.188
302.261
302.335
302.411
302.486
302.561
300.003
300.01
300.017
300.024
300.031
300.039
300.047
300.056
300.064
300.074
300.083
300.093
300.103
300.114
300.125
300.137
300.149
300.161
300.174
300.188
300.201
300.216
300.231
300.246
300.262
300.279
300.296
300.313
300.331
300.35
300.37
300.39
300.41
300.431
300.453
300.476
300.499
300.523
300.548
300.573
300.6
300.626
300.654
300.683
300.712
300.742
300.773
300.805
300.837
300.871
300.906
300.941
300.978
301.015
301.053
301.093
301.134
301.175
301.218
301.262
301.307
301.354
301.402
301.451
301.501
301.553
301.607
301.662
301.718
301.776
301.836
301.897
301.96
302.025
302.091
302.158
302.226
302.295
302.364
302.433
302.501
300.003
300.01
300.017
300.024
300.031
300.039
300.047
300.056
300.064
300.074
300.083
300.093
300.103
300.114
300.125
300.137
300.149
300.161
300.174
300.187
300.201
300.216
300.231
300.246
300.262
300.278
300.295
300.313
300.331
300.35
300.369
300.389
300.41
300.431
300.453
300.476
300.499
300.523
300.547
300.573
300.599
300.626
300.653
300.682
300.711
300.741
300.772
300.803
300.836
300.869
300.904
300.939
300.975
301.012
301.05
301.09
301.13
301.171
301.214
301.257
301.302
301.348
301.395
301.443
301.493
301.544
301.596
301.649
301.704
301.761
301.818
301.877
301.937
301.999
302.061
302.124
302.188
302.252
302.316
302.379
302.44
300.003
300.01
300.017
300.024
300.031
300.039
300.047
300.056
300.064
300.074
300.083
300.093
300.103
300.114
300.125
300.137
300.149
300.161
300.174
300.187
300.201
300.215
300.23
300.246
300.262
300.278
300.295
300.313
300.331
300.35
300.369
300.389
300.409
300.431
300.452
300.475
300.498
300.522
300.546
300.572
300.598
300.624
300.652
300.68
300.709
300.739
300.77
300.801
300.834
300.867
300.901
300.936
300.972
301.009
301.047
301.085
301.125
301.166
301.208
301.251
301.295
301.34
301.386
301.434
301.482
301.532
301.583
301.635
301.688
301.742
301.798
301.854
301.911
301.969
302.028
302.087
302.147
302.206
302.265
302.323
302.379
300.003
300.01
300.017
300.024
300.031
300.039
300.047
300.056
300.064
300.073
300.083
300.093
300.103
300.114
300.125
300.136
300.148
300.161
300.174
300.187
300.201
300.215
300.23
300.245
300.261
300.278
300.295
300.312
300.33
300.349
300.368
300.388
300.409
300.43
300.452
300.474
300.497
300.521
300.545
300.571
300.597
300.623
300.651
300.679
300.708
300.737
300.768
300.799
300.831
300.864
300.898
300.933
300.968
301.005
301.042
301.08
301.12
301.16
301.201
301.243
301.287
301.331
301.376
301.422
301.47
301.518
301.567
301.618
301.669
301.721
301.774
301.828
301.882
301.937
301.992
302.047
302.103
302.158
302.212
302.266
302.318
300.003
300.01
300.017
300.024
300.031
300.039
300.047
300.056
300.064
300.073
300.083
300.093
300.103
300.114
300.125
300.136
300.148
300.161
300.174
300.187
300.201
300.215
300.23
300.245
300.261
300.277
300.294
300.312
300.33
300.349
300.368
300.388
300.408
300.429
300.451
300.473
300.496
300.52
300.544
300.569
300.595
300.621
300.649
300.677
300.705
300.735
300.765
300.796
300.828
300.861
300.894
300.928
300.964
301
301.036
301.074
301.113
301.153
301.193
301.234
301.277
301.32
301.364
301.409
301.455
301.502
301.55
301.598
301.647
301.697
301.747
301.798
301.85
301.901
301.953
302.005
302.056
302.107
302.158
302.208
302.256
300.003
300.01
300.017
300.024
300.031
300.039
300.047
300.055
300.064
300.073
300.083
300.093
300.103
300.114
300.125
300.136
300.148
300.161
300.173
300.187
300.2
300.215
300.23
300.245
300.261
300.277
300.294
300.311
300.329
300.348
300.367
300.387
300.407
300.428
300.45
300.472
300.495
300.518
300.543
300.568
300.593
300.619
300.646
300.674
300.703
300.732
300.762
300.793
300.824
300.856
300.889
300.923
300.958
300.994
301.03
301.067
301.105
301.144
301.183
301.224
301.265
301.307
301.35
301.394
301.438
301.483
301.529
301.576
301.623
301.67
301.718
301.766
301.815
301.863
301.912
301.96
302.008
302.056
302.103
302.149
302.194
300.003
300.01
300.017
300.024
300.031
300.039
300.047
300.055
300.064
300.073
300.083
300.093
300.103
300.113
300.124
300.136
300.148
300.16
300.173
300.186
300.2
300.214
300.229
300.244
300.26
300.276
300.293
300.311
300.329
300.347
300.366
300.386
300.406
300.427
300.448
300.471
300.493
300.517
300.541
300.566
300.591
300.617
300.644
300.671
300.7
300.728
300.758
300.788
300.82
300.851
300.884
300.917
300.951
300.986
301.022
301.058
301.096
301.134
301.172
301.212
301.252
301.293
301.334
301.376
301.419
301.462
301.506
301.551
301.595
301.641
301.686
301.731
301.777
301.823
301.868
301.913
301.958
302.002
302.046
302.089
302.131
300.003
300.01
300.017
300.024
300.031
300.039
300.047
300.055
300.064
300.073
300.083
300.092
300.103
300.113
300.124
300.136
300.148
300.16
300.173
300.186
300.2
300.214
300.229
300.244
300.26
300.276
300.293
300.31
300.328
300.346
300.365
300.385
300.405
300.426
300.447
300.469
300.492
300.515
300.539
300.563
300.588
300.614
300.641
300.668
300.696
300.724
300.754
300.784
300.814
300.846
300.878
300.91
300.944
300.978
301.013
301.048
301.085
301.122
301.159
301.198
301.236
301.276
301.316
301.356
301.398
301.439
301.481
301.523
301.566
301.608
301.651
301.694
301.737
301.78
301.822
301.865
301.906
301.948
301.988
302.028
302.068
300.003
300.01
300.017
300.024
300.031
300.039
300.047
300.055
300.064
300.073
300.082
300.092
300.102
300.113
300.124
300.135
300.147
300.16
300.172
300.186
300.199
300.213
300.228
300.243
300.259
300.275
300.292
300.309
300.327
300.345
300.364
300.383
300.403
300.424
300.445
300.467
300.489
300.512
300.536
300.56
300.585
300.611
300.637
300.664
300.691
300.719
300.748
300.778
300.808
300.839
300.87
300.902
300.935
300.968
301.002
301.037
301.072
301.108
301.145
301.182
301.219
301.257
301.296
301.335
301.374
301.413
301.453
301.493
301.534
301.574
301.614
301.655
301.695
301.735
301.775
301.814
301.853
301.892
301.93
301.967
302.004
300.003
300.01
300.017
300.024
300.031
300.039
300.047
300.055
300.064
300.073
300.082
300.092
300.102
300.113
300.124
300.135
300.147
300.159
300.172
300.185
300.199
300.213
300.227
300.242
300.258
300.274
300.291
300.308
300.325
300.344
300.362
300.382
300.402
300.422
300.443
300.465
300.487
300.51
300.533
300.557
300.582
300.607
300.633
300.659
300.686
300.714
300.742
300.771
300.801
300.831
300.862
300.893
300.925
300.957
300.991
301.024
301.058
301.093
301.128
301.164
301.2
301.236
301.273
301.31
301.348
301.386
301.423
301.461
301.499
301.538
301.576
301.614
301.651
301.689
301.726
301.763
301.799
301.835
301.871
301.906
301.94
300.003
300.01
300.016
300.024
300.031
300.039
300.047
300.055
300.064
300.073
300.082
300.092
300.102
300.112
300.123
300.135
300.146
300.159
300.171
300.184
300.198
300.212
300.226
300.241
300.257
300.273
300.289
300.306
300.324
300.342
300.361
300.38
300.399
300.42
300.44
300.462
300.484
300.506
300.529
300.553
300.577
300.602
300.628
300.654
300.68
300.707
300.735
300.763
300.792
300.822
300.852
300.882
300.913
300.945
300.977
301.01
301.043
301.076
301.11
301.144
301.179
301.214
301.249
301.284
301.32
301.356
301.391
301.427
301.463
301.499
301.535
301.57
301.606
301.641
301.676
301.71
301.744
301.778
301.811
301.843
301.875
300.003
300.01
300.016
300.023
300.031
300.038
300.046
300.055
300.063
300.072
300.082
300.091
300.102
300.112
300.123
300.134
300.146
300.158
300.171
300.184
300.197
300.211
300.225
300.24
300.256
300.272
300.288
300.305
300.322
300.34
300.359
300.377
300.397
300.417
300.438
300.459
300.48
300.503
300.525
300.549
300.572
300.597
300.622
300.647
300.673
300.7
300.727
300.755
300.783
300.812
300.841
300.87
300.901
300.931
300.962
300.993
301.025
301.057
301.09
301.123
301.156
301.189
301.222
301.256
301.29
301.324
301.358
301.391
301.425
301.459
301.492
301.526
301.559
301.592
301.624
301.656
301.688
301.72
301.75
301.781
301.811
300.003
300.01
300.016
300.023
300.031
300.038
300.046
300.055
300.063
300.072
300.081
300.091
300.101
300.112
300.122
300.134
300.145
300.157
300.17
300.183
300.196
300.21
300.224
300.239
300.254
300.27
300.286
300.303
300.32
300.338
300.356
300.375
300.394
300.414
300.434
300.455
300.476
300.498
300.521
300.543
300.567
300.591
300.615
300.64
300.666
300.692
300.718
300.745
300.772
300.8
300.828
300.857
300.886
300.916
300.946
300.976
301.006
301.037
301.068
301.099
301.131
301.162
301.194
301.226
301.258
301.29
301.322
301.354
301.385
301.417
301.449
301.48
301.511
301.541
301.572
301.602
301.632
301.661
301.69
301.718
301.746
300.003
300.01
300.016
300.023
300.031
300.038
300.046
300.054
300.063
300.072
300.081
300.091
300.101
300.111
300.122
300.133
300.145
300.157
300.169
300.182
300.195
300.209
300.223
300.238
300.253
300.268
300.284
300.301
300.318
300.335
300.353
300.372
300.391
300.41
300.43
300.451
300.472
300.493
300.515
300.538
300.56
300.584
300.608
300.632
300.657
300.682
300.708
300.734
300.76
300.787
300.815
300.842
300.87
300.899
300.927
300.956
300.985
301.015
301.044
301.074
301.104
301.134
301.164
301.194
301.224
301.255
301.285
301.314
301.344
301.374
301.403
301.433
301.462
301.49
301.519
301.547
301.574
301.602
301.629
301.655
301.681
300.003
300.01
300.016
300.023
300.03
300.038
300.046
300.054
300.063
300.071
300.081
300.09
300.1
300.11
300.121
300.132
300.144
300.156
300.168
300.181
300.194
300.207
300.221
300.236
300.251
300.266
300.282
300.299
300.315
300.333
300.35
300.368
300.387
300.406
300.426
300.446
300.467
300.488
300.509
300.531
300.553
300.576
300.599
300.623
300.647
300.672
300.697
300.722
300.747
300.773
300.8
300.826
300.853
300.88
300.908
300.935
300.963
300.991
301.019
301.048
301.076
301.104
301.133
301.161
301.189
301.218
301.246
301.274
301.302
301.33
301.357
301.385
301.412
301.438
301.465
301.491
301.517
301.542
301.568
301.592
301.617
300.003
300.009
300.016
300.023
300.03
300.038
300.046
300.054
300.062
300.071
300.08
300.09
300.099
300.11
300.12
300.131
300.143
300.155
300.167
300.179
300.192
300.206
300.22
300.234
300.249
300.264
300.28
300.296
300.312
300.329
300.347
300.365
300.383
300.402
300.421
300.441
300.461
300.481
300.502
300.523
300.545
300.567
300.59
300.613
300.636
300.66
300.684
300.708
300.733
300.758
300.783
300.809
300.835
300.861
300.887
300.913
300.939
300.966
300.993
301.019
301.046
301.073
301.1
301.126
301.153
301.18
301.206
301.232
301.259
301.285
301.31
301.336
301.361
301.386
301.411
301.435
301.459
301.483
301.507
301.53
301.552
300.003
300.009
300.016
300.023
300.03
300.038
300.045
300.053
300.062
300.071
300.08
300.089
300.099
300.109
300.119
300.13
300.142
300.153
300.165
300.178
300.191
300.204
300.218
300.232
300.246
300.261
300.277
300.293
300.309
300.326
300.343
300.36
300.378
300.396
300.415
300.434
300.454
300.474
300.494
300.515
300.536
300.558
300.58
300.602
300.625
300.647
300.67
300.694
300.718
300.742
300.766
300.79
300.815
300.839
300.864
300.889
300.914
300.939
300.965
300.99
301.015
301.04
301.065
301.091
301.116
301.141
301.165
301.19
301.214
301.239
301.263
301.287
301.31
301.333
301.357
301.379
301.402
301.424
301.446
301.467
301.489
300.003
300.009
300.016
300.023
300.03
300.037
300.045
300.053
300.061
300.07
300.079
300.088
300.098
300.108
300.118
300.129
300.14
300.152
300.164
300.176
300.189
300.202
300.215
300.229
300.244
300.258
300.274
300.289
300.305
300.321
300.338
300.355
300.373
300.391
300.409
300.428
300.447
300.466
300.486
300.506
300.527
300.547
300.569
300.59
300.612
300.634
300.656
300.678
300.701
300.724
300.747
300.77
300.793
300.817
300.84
300.864
300.888
300.912
300.935
300.959
300.983
301.007
301.03
301.054
301.077
301.101
301.124
301.147
301.17
301.192
301.215
301.237
301.259
301.281
301.302
301.323
301.344
301.365
301.385
301.406
301.425
300.003
300.009
300.016
300.023
300.03
300.037
300.045
300.052
300.061
300.069
300.078
300.087
300.097
300.107
300.117
300.128
300.139
300.15
300.162
300.174
300.187
300.2
300.213
300.227
300.241
300.255
300.27
300.285
300.301
300.317
300.333
300.35
300.367
300.384
300.402
300.42
300.439
300.458
300.477
300.496
300.516
300.536
300.556
300.577
300.598
300.619
300.64
300.661
300.683
300.705
300.727
300.749
300.771
300.793
300.816
300.838
300.86
300.883
300.905
300.928
300.95
300.972
300.994
301.016
301.038
301.06
301.082
301.103
301.125
301.146
301.167
301.187
301.208
301.228
301.248
301.268
301.288
301.307
301.326
301.344
301.363
300.003
300.009
300.016
300.022
300.029
300.037
300.044
300.052
300.06
300.069
300.077
300.087
300.096
300.106
300.116
300.126
300.137
300.149
300.16
300.172
300.184
300.197
300.21
300.223
300.237
300.251
300.266
300.281
300.296
300.312
300.327
300.344
300.36
300.377
300.395
300.412
300.43
300.448
300.467
300.485
300.505
300.524
300.543
300.563
300.583
300.603
300.623
300.644
300.664
300.685
300.706
300.727
300.748
300.769
300.79
300.811
300.832
300.853
300.874
300.895
300.916
300.937
300.958
300.978
300.999
301.019
301.04
301.06
301.08
301.099
301.119
301.138
301.157
301.176
301.195
301.213
301.231
301.249
301.267
301.284
301.301
300.003
300.009
300.015
300.022
300.029
300.036
300.044
300.051
300.059
300.068
300.076
300.085
300.095
300.104
300.114
300.125
300.135
300.147
300.158
300.17
300.182
300.194
300.207
300.22
300.233
300.247
300.261
300.276
300.291
300.306
300.321
300.337
300.353
300.37
300.386
300.403
300.421
300.438
300.456
300.474
300.492
300.511
300.529
300.548
300.567
300.586
300.606
300.625
300.645
300.664
300.684
300.704
300.724
300.743
300.763
300.783
300.803
300.823
300.843
300.862
300.882
300.901
300.921
300.94
300.959
300.978
300.997
301.016
301.035
301.053
301.071
301.089
301.107
301.124
301.142
301.159
301.176
301.193
301.209
301.225
301.241
300.003
300.009
300.015
300.022
300.029
300.036
300.043
300.051
300.059
300.067
300.075
300.084
300.094
300.103
300.113
300.123
300.133
300.144
300.155
300.167
300.179
300.191
300.203
300.216
300.229
300.243
300.257
300.271
300.285
300.3
300.315
300.33
300.346
300.362
300.378
300.394
300.411
300.427
300.445
300.462
300.479
300.497
300.515
300.533
300.551
300.569
300.587
300.606
300.624
300.643
300.662
300.68
300.699
300.718
300.736
300.755
300.774
300.792
300.811
300.829
300.848
300.866
300.884
300.902
300.92
300.938
300.955
300.973
300.99
301.007
301.024
301.041
301.057
301.074
301.09
301.106
301.122
301.137
301.153
301.168
301.183
300.003
300.009
300.015
300.022
300.028
300.035
300.042
300.05
300.058
300.066
300.074
300.083
300.092
300.101
300.111
300.121
300.131
300.142
300.153
300.164
300.176
300.187
300.2
300.212
300.225
300.238
300.251
300.265
300.279
300.293
300.308
300.322
300.338
300.353
300.368
300.384
300.4
300.416
300.432
300.449
300.466
300.482
300.499
300.517
300.534
300.551
300.568
300.586
300.603
300.621
300.639
300.656
300.674
300.691
300.709
300.726
300.744
300.761
300.779
300.796
300.813
300.83
300.847
300.864
300.881
300.897
300.914
300.93
300.946
300.962
300.978
300.993
301.009
301.024
301.039
301.054
301.069
301.083
301.097
301.112
301.125
300.003
300.009
300.015
300.021
300.028
300.035
300.042
300.049
300.057
300.065
300.073
300.082
300.091
300.1
300.109
300.119
300.129
300.139
300.15
300.161
300.172
300.184
300.196
300.208
300.22
300.233
300.246
300.259
300.272
300.286
300.3
300.314
300.329
300.344
300.358
300.374
300.389
300.404
300.42
300.436
300.452
300.468
300.484
300.5
300.516
300.533
300.549
300.566
300.582
300.599
300.615
300.632
300.648
300.665
300.681
300.698
300.714
300.731
300.747
300.763
300.779
300.795
300.811
300.827
300.842
300.858
300.873
300.888
300.903
300.918
300.933
300.947
300.962
300.976
300.99
301.004
301.017
301.031
301.044
301.057
301.07
300.003
300.009
300.015
300.021
300.027
300.034
300.041
300.048
300.056
300.064
300.072
300.08
300.089
300.098
300.107
300.117
300.126
300.136
300.147
300.158
300.168
300.18
300.191
300.203
300.215
300.227
300.24
300.253
300.266
300.279
300.292
300.306
300.32
300.334
300.348
300.363
300.377
300.392
300.407
300.422
300.437
300.452
300.468
300.483
300.499
300.514
300.53
300.545
300.561
300.576
300.592
300.608
300.623
300.639
300.654
300.67
300.685
300.7
300.716
300.731
300.746
300.761
300.775
300.79
300.805
300.819
300.833
300.848
300.862
300.875
300.889
300.903
300.916
300.929
300.942
300.955
300.968
300.98
300.993
301.005
301.017
300.003
300.008
300.014
300.02
300.027
300.033
300.04
300.047
300.055
300.062
300.07
300.079
300.087
300.096
300.105
300.114
300.124
300.134
300.144
300.154
300.165
300.176
300.187
300.198
300.21
300.222
300.234
300.246
300.259
300.271
300.284
300.297
300.311
300.324
300.338
300.352
300.366
300.38
300.394
300.408
300.423
300.437
300.452
300.466
300.481
300.495
300.51
300.525
300.54
300.554
300.569
300.584
300.598
300.613
300.627
300.642
300.656
300.671
300.685
300.699
300.713
300.727
300.741
300.755
300.768
300.782
300.795
300.808
300.821
300.834
300.847
300.86
300.872
300.884
300.897
300.909
300.921
300.932
300.944
300.955
300.966
300.003
300.008
300.014
300.02
300.026
300.033
300.039
300.046
300.054
300.061
300.069
300.077
300.085
300.094
300.103
300.112
300.121
300.13
300.14
300.15
300.161
300.171
300.182
300.193
300.204
300.216
300.227
300.239
300.251
300.264
300.276
300.289
300.301
300.314
300.327
300.341
300.354
300.367
300.381
300.394
300.408
300.422
300.435
300.449
300.463
300.477
300.491
300.505
300.519
300.533
300.546
300.56
300.574
300.588
300.601
300.615
300.629
300.642
300.655
300.669
300.682
300.695
300.708
300.721
300.733
300.746
300.758
300.771
300.783
300.795
300.807
300.819
300.83
300.842
300.853
300.865
300.876
300.887
300.897
300.908
300.918
300.003
300.008
300.014
300.02
300.026
300.032
300.039
300.045
300.053
300.06
300.067
300.075
300.083
300.092
300.1
300.109
300.118
300.127
300.137
300.147
300.157
300.167
300.177
300.188
300.199
300.21
300.221
300.232
300.244
300.256
300.268
300.28
300.292
300.304
300.317
300.33
300.342
300.355
300.368
300.381
300.394
300.407
300.42
300.433
300.446
300.459
300.472
300.485
300.499
300.512
300.525
300.538
300.551
300.564
300.576
300.589
300.602
300.615
300.627
300.64
300.652
300.664
300.676
300.688
300.7
300.712
300.724
300.735
300.747
300.758
300.769
300.78
300.791
300.802
300.813
300.823
300.834
300.844
300.854
300.864
300.874
300.003
300.008
300.013
300.019
300.025
300.031
300.038
300.044
300.051
300.058
300.066
300.073
300.081
300.089
300.098
300.106
300.115
300.124
300.133
300.143
300.153
300.162
300.173
300.183
300.193
300.204
300.215
300.226
300.237
300.248
300.26
300.271
300.283
300.295
300.307
300.319
300.331
300.343
300.355
300.368
300.38
300.392
300.405
300.417
300.43
300.442
300.455
300.467
300.479
300.492
300.504
300.516
300.529
300.541
300.553
300.565
300.577
300.589
300.601
300.612
300.624
300.636
300.647
300.658
300.67
300.681
300.692
300.702
300.713
300.724
300.734
300.745
300.755
300.765
300.775
300.785
300.795
300.804
300.814
300.823
300.832
300.003
300.008
300.013
300.019
300.025
300.031
300.037
300.043
300.05
300.057
300.064
300.072
300.079
300.087
300.095
300.104
300.112
300.121
300.13
300.139
300.149
300.158
300.168
300.178
300.188
300.198
300.209
300.219
300.23
300.241
300.252
300.263
300.274
300.286
300.297
300.309
300.32
300.332
300.344
300.355
300.367
300.379
300.391
300.403
300.414
300.426
300.438
300.45
300.462
300.473
300.485
300.497
300.508
300.52
300.531
300.543
300.554
300.565
300.577
300.588
300.599
300.609
300.62
300.631
300.641
300.652
300.662
300.673
300.683
300.693
300.703
300.712
300.722
300.731
300.741
300.75
300.759
300.768
300.777
300.786
300.795
300.002
300.008
300.013
300.018
300.024
300.03
300.036
300.043
300.049
300.056
300.063
300.07
300.078
300.085
300.093
300.101
300.11
300.118
300.127
300.136
300.145
300.154
300.164
300.173
300.183
300.193
300.203
300.213
300.224
300.234
300.245
300.256
300.266
300.277
300.288
300.299
300.311
300.322
300.333
300.344
300.355
300.367
300.378
300.389
300.401
300.412
300.423
300.435
300.446
300.457
300.468
300.479
300.49
300.501
300.512
300.523
300.534
300.544
300.555
300.565
300.576
300.586
300.596
300.606
300.617
300.626
300.636
300.646
300.656
300.665
300.674
300.684
300.693
300.702
300.711
300.719
300.728
300.737
300.745
300.753
300.761
300.002
300.007
300.013
300.018
300.024
300.029
300.035
300.042
300.048
300.055
300.062
300.069
300.076
300.084
300.091
300.099
300.107
300.116
300.124
300.133
300.142
300.151
300.16
300.169
300.179
300.188
300.198
300.208
300.218
300.228
300.239
300.249
300.26
300.27
300.281
300.291
300.302
300.313
300.324
300.334
300.345
300.356
300.367
300.378
300.389
300.4
300.41
300.421
300.432
300.443
300.453
300.464
300.475
300.485
300.495
300.506
300.516
300.526
300.536
300.546
300.556
300.566
300.576
300.586
300.595
300.605
300.614
300.623
300.632
300.641
300.65
300.659
300.668
300.676
300.685
300.693
300.702
300.71
300.718
300.726
300.733
300.002
300.007
300.012
300.018
300.023
300.029
300.035
300.041
300.047
300.054
300.061
300.067
300.075
300.082
300.09
300.097
300.105
300.113
300.122
300.13
300.139
300.148
300.157
300.166
300.175
300.185
300.194
300.204
300.214
300.224
300.234
300.244
300.254
300.264
300.274
300.285
300.295
300.306
300.316
300.326
300.337
300.348
300.358
300.369
300.379
300.39
300.4
300.41
300.421
300.431
300.441
300.452
300.462
300.472
300.482
300.492
300.502
300.512
300.522
300.531
300.541
300.55
300.56
300.569
300.578
300.587
300.596
300.605
300.614
300.623
300.631
300.64
300.648
300.656
300.664
300.672
300.68
300.688
300.696
300.704
300.711
300.002
300.007
300.012
300.017
300.023
300.029
300.034
300.04
300.047
300.053
300.06
300.067
300.074
300.081
300.088
300.096
300.104
300.112
300.12
300.128
300.137
300.146
300.154
300.163
300.173
300.182
300.191
300.201
300.21
300.22
300.23
300.24
300.25
300.26
300.27
300.28
300.29
300.3
300.311
300.321
300.331
300.341
300.352
300.362
300.372
300.382
300.393
300.403
300.413
300.423
300.433
300.443
300.453
300.463
300.473
300.482
300.492
300.502
300.511
300.52
300.53
300.539
300.548
300.557
300.566
300.575
300.584
300.592
300.601
300.609
300.618
300.626
300.634
300.642
300.65
300.658
300.665
300.673
300.681
300.688
300.695
300.002
300.007
300.012
300.017
300.023
300.028
300.034
300.04
300.046
300.053
300.059
300.066
300.073
300.08
300.088
300.095
300.103
300.111
300.119
300.127
300.136
300.144
300.153
300.162
300.171
300.18
300.19
300.199
300.208
300.218
300.228
300.238
300.247
300.257
300.267
300.277
300.287
300.297
300.308
300.318
300.328
300.338
300.348
300.358
300.368
300.378
300.389
300.399
300.409
300.419
300.428
300.438
300.448
300.458
300.467
300.477
300.487
300.496
300.505
300.515
300.524
300.533
300.542
300.551
300.56
300.568
300.577
300.585
300.594
300.602
300.61
300.619
300.627
300.634
300.642
300.65
300.657
300.665
300.672
300.68
300.687
303.029
303.159
303.236
303.309
303.372
303.424
303.459
303.499
303.539
303.576
303.608
303.642
303.677
303.711
303.745
303.778
303.81
303.837
303.867
303.897
303.926
303.956
303.985
304.014
304.044
304.072
304.1
304.128
304.156
304.183
304.211
304.238
304.264
304.29
304.316
304.342
304.367
304.393
304.418
304.443
304.468
304.491
304.517
304.544
304.571
304.596
304.619
304.644
304.67
304.696
304.72
304.742
304.766
304.791
304.816
304.842
304.868
304.893
304.918
304.942
304.962
304.985
305.008
305.032
305.057
305.081
305.105
305.129
305.153
305.176
305.199
305.222
305.244
305.267
305.29
305.312
305.334
305.356
305.377
305.401
305.427
305.451
305.473
305.494
305.514
305.533
305.555
305.58
305.602
305.622
305.64
305.661
305.685
305.704
305.726
305.749
305.77
305.789
305.81
305.83
305.848
305.868
305.885
305.904
305.924
305.945
305.964
305.979
305.996
306.011
306.028
306.046
306.064
306.083
306.099
306.111
306.126
306.142
306.158
306.172
306.182
306.194
306.207
306.219
306.231
306.239
306.248
306.257
306.266
306.274
306.281
306.286
306.291
306.294
306.296
306.297
306.296
306.293
306.29
306.284
306.277
306.268
306.257
306.244
306.229
306.211
306.191
306.168
306.142
306.11
306.072
306.033
305.993
305.947
305.895
305.837
305.773
305.666
305.568
305.445
305.285
302.928
303.042
303.13
303.206
303.271
303.327
303.373
303.417
303.459
303.498
303.535
303.571
303.607
303.643
303.677
303.711
303.743
303.774
303.804
303.835
303.865
303.895
303.925
303.955
303.985
304.014
304.043
304.071
304.099
304.127
304.154
304.182
304.209
304.235
304.262
304.288
304.314
304.34
304.365
304.391
304.416
304.441
304.467
304.493
304.519
304.545
304.569
304.595
304.62
304.646
304.67
304.694
304.718
304.743
304.769
304.794
304.82
304.845
304.87
304.894
304.916
304.939
304.963
304.987
305.011
305.035
305.059
305.083
305.107
305.131
305.154
305.178
305.2
305.223
305.246
305.269
305.291
305.314
305.336
305.359
305.385
305.408
305.431
305.452
305.473
305.493
305.515
305.539
305.561
305.581
305.601
305.622
305.645
305.665
305.687
305.71
305.731
305.75
305.772
305.792
305.81
305.83
305.847
305.867
305.887
305.908
305.926
305.942
305.96
305.975
305.992
306.01
306.029
306.047
306.063
306.076
306.092
306.107
306.123
306.137
306.148
306.16
306.173
306.185
306.197
306.206
306.215
306.224
306.233
306.241
306.247
306.253
306.258
306.261
306.263
306.264
306.263
306.261
306.257
306.252
306.245
306.236
306.225
306.212
306.197
306.179
306.159
306.135
306.108
306.077
306.039
305.999
305.958
305.912
305.859
305.798
305.73
305.626
305.523
305.394
305.218
302.846
302.945
303.032
303.107
303.174
303.232
303.284
303.331
303.376
303.418
303.458
303.496
303.533
303.57
303.606
303.64
303.674
303.706
303.738
303.769
303.8
303.831
303.862
303.892
303.922
303.952
303.981
304.01
304.039
304.067
304.095
304.123
304.15
304.177
304.204
304.231
304.257
304.283
304.309
304.335
304.361
304.387
304.413
304.439