/*--------------------------------*- C++ -*----------------------------------*\
| =========                 |                                                 |
| \\      /  F ield         | OpenFOAM: The Open Source CFD Toolbox           |
|  \\    /   O peration     | Version:  2106                                  |
|   \\  /    A nd           | Website:  www.openfoam.com                      |
|    \\/     M anipulation  |                                                 |
\*---------------------------------------------------------------------------*/
FoamFile
{
    version     2.0;
    format      ascii;
    arch        "LSB;label=32;scalar=64";
    class       volVectorField;
    location    "5.6";
    object      U;
}
// * * * * * * * * * * * * * * * * * * * * * * * * * * * * * * * * * * * * * //

dimensions      [0 1 -1 0 0 0 0];

internalField   nonuniform List<vector> 
12013
(
(0.100035 -9.7934e-06 0)
(0.100179 -1.81033e-05 0)
(0.100412 -2.581e-05 0)
(0.100712 -3.29206e-05 0)
(0.101075 -3.96068e-05 0)
(0.101495 -4.59665e-05 0)
(0.101965 -5.20622e-05 0)
(0.102482 -5.79441e-05 0)
(0.103042 -6.36505e-05 0)
(0.103641 -6.92103e-05 0)
(0.104277 -7.46478e-05 0)
(0.104947 -7.99816e-05 0)
(0.105649 -8.52272e-05 0)
(0.106379 -9.0397e-05 0)
(0.107137 -9.55006e-05 0)
(0.107921 -0.000100546 0)
(0.108728 -0.00010554 0)
(0.109558 -0.000110486 0)
(0.110408 -0.000115388 0)
(0.111277 -0.000120247 0)
(0.112164 -0.000125066 0)
(0.113067 -0.000129844 0)
(0.113986 -0.00013458 0)
(0.114918 -0.000139273 0)
(0.115864 -0.000143921 0)
(0.116821 -0.00014852 0)
(0.117788 -0.000153067 0)
(0.118765 -0.000157558 0)
(0.11975 -0.000161987 0)
(0.120742 -0.00016635 0)
(0.12174 -0.00017064 0)
(0.122743 -0.000174849 0)
(0.12375 -0.00017897 0)
(0.124761 -0.000182995 0)
(0.125773 -0.000186913 0)
(0.126786 -0.000190716 0)
(0.127799 -0.000194391 0)
(0.12881 -0.000197926 0)
(0.12982 -0.000201307 0)
(0.130826 -0.00020452 0)
(0.131828 -0.000207547 0)
(0.132824 -0.000210371 0)
(0.133813 -0.000212971 0)
(0.134795 -0.000215324 0)
(0.135768 -0.000217405 0)
(0.13673 -0.000219186 0)
(0.137681 -0.000220635 0)
(0.138619 -0.000221716 0)
(0.139543 -0.000222388 0)
(0.140451 -0.000222605 0)
(0.141342 -0.000222313 0)
(0.142213 -0.000221451 0)
(0.143064 -0.00021995 0)
(0.143892 -0.000217725 0)
(0.144695 -0.000214682 0)
(0.145471 -0.000210708 0)
(0.146217 -0.000205668 0)
(0.14693 -0.000199403 0)
(0.147607 -0.000191721 0)
(0.148244 -0.000182389 0)
(0.148836 -0.000171123 0)
(0.149379 -0.000157573 0)
(0.149868 -0.000141301 0)
(0.150294 -0.000121757 0)
(0.15065 -9.82361e-05 0)
(0.150927 -6.98305e-05 0)
(0.151111 -3.53466e-05 0)
(0.151188 6.80793e-06 0)
(0.151139 5.88283e-05 0)
(0.150939 0.000123818 0)
(0.150557 0.000206202 0)
(0.149949 0.000312488 0)
(0.149058 0.000452544 0)
(0.147799 0.000641822 0)
(0.146051 0.000905344 0)
(0.143635 0.00128505 0)
(0.140269 0.00185383 0)
(0.13549 0.002746 0)
(0.128524 0.00425075 0)
(0.118308 0.00721564 0)
(0.106585 0.0156124 0)
(0.100032 -2.99024e-05 0)
(0.100176 -5.55036e-05 0)
(0.100407 -7.91732e-05 0)
(0.100707 -0.000100995 0)
(0.101069 -0.000121516 0)
(0.101488 -0.000141032 0)
(0.101957 -0.000159737 0)
(0.102473 -0.000177784 0)
(0.103032 -0.000195291 0)
(0.103631 -0.000212348 0)
(0.104266 -0.000229028 0)
(0.104935 -0.000245389 0)
(0.105635 -0.000261479 0)
(0.106365 -0.000277334 0)
(0.107121 -0.000292987 0)
(0.107904 -0.00030846 0)
(0.10871 -0.000323773 0)
(0.109538 -0.000338939 0)
(0.110387 -0.000353968 0)
(0.111255 -0.000368868 0)
(0.11214 -0.000383641 0)
(0.113042 -0.000398287 0)
(0.113959 -0.000412805 0)
(0.11489 -0.000427189 0)
(0.115834 -0.000441434 0)
(0.116789 -0.000455529 0)
(0.117755 -0.000469464 0)
(0.11873 -0.000483225 0)
(0.119713 -0.000496797 0)
(0.120703 -0.000510163 0)
(0.121699 -0.000523304 0)
(0.1227 -0.000536198 0)
(0.123706 -0.000548821 0)
(0.124714 -0.000561147 0)
(0.125724 -0.000573147 0)
(0.126735 -0.000584791 0)
(0.127745 -0.000596042 0)
(0.128755 -0.000606864 0)
(0.129762 -0.000617214 0)
(0.130765 -0.000627045 0)
(0.131764 -0.000636309 0)
(0.132758 -0.000644948 0)
(0.133745 -0.000652899 0)
(0.134724 -0.000660095 0)
(0.135694 -0.000666457 0)
(0.136654 -0.000671898 0)
(0.137602 -0.000676322 0)
(0.138537 -0.000679619 0)
(0.139458 -0.000681663 0)
(0.140364 -0.000682313 0)
(0.141252 -0.000681408 0)
(0.14212 -0.000678759 0)
(0.142969 -0.000674152 0)
(0.143794 -0.000667336 0)
(0.144595 -0.000658019 0)
(0.145368 -0.000645855 0)
(0.146111 -0.00063044 0)
(0.146822 -0.000611286 0)
(0.147497 -0.000587812 0)
(0.148133 -0.000559312 0)
(0.148724 -0.000524926 0)
(0.149268 -0.000483595 0)
(0.149757 -0.000433997 0)
(0.150185 -0.000374475 0)
(0.150545 -0.000302916 0)
(0.150827 -0.000216597 0)
(0.15102 -0.00011196 0)
(0.15111 1.57201e-05 0)
(0.151079 0.000172874 0)
(0.150906 0.000368478 0)
(0.150563 0.000615229 0)
(0.150014 0.000931534 0)
(0.14921 0.00134478 0)
(0.148087 0.00189678 0)
(0.146558 0.00265313 0)
(0.144504 0.00371903 0)
(0.141767 0.00526577 0)
(0.138126 0.00757436 0)
(0.133314 0.0111088 0)
(0.127349 0.0165462 0)
(0.122457 0.0242202 0)
(0.10003 -5.08249e-05 0)
(0.100171 -9.52024e-05 0)
(0.100401 -0.000135969 0)
(0.100699 -0.000173541 0)
(0.101059 -0.000208865 0)
(0.101476 -0.000242453 0)
(0.101943 -0.000274639 0)
(0.102457 -0.000305691 0)
(0.103014 -0.000335809 0)
(0.103611 -0.000365151 0)
(0.104244 -0.000393842 0)
(0.10491 -0.000421983 0)
(0.105608 -0.000449654 0)
(0.106336 -0.000476921 0)
(0.10709 -0.000503836 0)
(0.10787 -0.000530441 0)
(0.108674 -0.000556768 0)
(0.109499 -0.000582841 0)
(0.110345 -0.000608677 0)
(0.11121 -0.000634287 0)
(0.112093 -0.000659678 0)
(0.112992 -0.000684849 0)
(0.113906 -0.000709797 0)
(0.114834 -0.000734513 0)
(0.115774 -0.000758986 0)
(0.116726 -0.000783201 0)
(0.117688 -0.000807137 0)
(0.118659 -0.000830772 0)
(0.119639 -0.00085408 0)
(0.120625 -0.000877031 0)
(0.121617 -0.000899591 0)
(0.122615 -0.000921725 0)
(0.123616 -0.00094339 0)
(0.12462 -0.000964542 0)
(0.125625 -0.000985131 0)
(0.126632 -0.0010051 0)
(0.127638 -0.0010244 0)
(0.128642 -0.00104295 0)
(0.129644 -0.00106069 0)
(0.130643 -0.00107754 0)
(0.131637 -0.00109341 0)
(0.132626 -0.0011082 0)
(0.133607 -0.00112181 0)
(0.134581 -0.00113411 0)
(0.135545 -0.00114498 0)
(0.1365 -0.00115427 0)
(0.137442 -0.00116181 0)
(0.138372 -0.00116742 0)
(0.139287 -0.00117087 0)
(0.140187 -0.00117193 0)
(0.141069 -0.00117033 0)
(0.141932 -0.00116574 0)
(0.142775 -0.00115779 0)
(0.143595 -0.00114607 0)
(0.14439 -0.00113008 0)
(0.145158 -0.00110924 0)
(0.145897 -0.00108285 0)
(0.146603 -0.0010501 0)
(0.147274 -0.00101002 0)
(0.147906 -0.000961416 0)
(0.148496 -0.00090286 0)
(0.149038 -0.000832586 0)
(0.149528 -0.000748412 0)
(0.149959 -0.000647604 0)
(0.150325 -0.000526706 0)
(0.150616 -0.000381295 0)
(0.150824 -0.000205637 0)
(0.150935 7.79357e-06 0)
(0.150936 0.000269035 0)
(0.150809 0.000591848 0)
(0.150532 0.000995295 0)
(0.15008 0.00150622 0)
(0.14942 0.00216312 0)
(0.148514 0.00302212 0)
(0.147318 0.00416608 0)
(0.145789 0.00571804 0)
(0.143894 0.00785855 0)
(0.141636 0.0108429 0)
(0.139125 0.0150019 0)
(0.136778 0.020612 0)
(0.135822 0.0271327 0)
(0.100027 -7.23783e-05 0)
(0.100166 -0.000137087 0)
(0.100392 -0.000196129 0)
(0.100687 -0.000250574 0)
(0.101045 -0.000301739 0)
(0.101458 -0.000350373 0)
(0.101923 -0.000396969 0)
(0.102434 -0.000441913 0)
(0.102988 -0.000485499 0)
(0.103581 -0.000527956 0)
(0.104211 -0.000569466 0)
(0.104874 -0.000610174 0)
(0.105569 -0.000650198 0)
(0.106293 -0.000689633 0)
(0.107044 -0.000728554 0)
(0.10782 -0.000767023 0)
(0.108619 -0.000805084 0)
(0.109441 -0.000842774 0)
(0.110283 -0.000880118 0)
(0.111143 -0.00091713 0)
(0.112022 -0.00095382 0)
(0.112916 -0.000990188 0)
(0.113825 -0.00102623 0)
(0.114748 -0.00106193 0)
(0.115683 -0.00109727 0)
(0.11663 -0.00113224 0)
(0.117587 -0.00116679 0)
(0.118553 -0.00120091 0)
(0.119526 -0.00123455 0)
(0.120507 -0.00126767 0)
(0.121493 -0.00130021 0)
(0.122484 -0.00133213 0)
(0.123479 -0.00136337 0)
(0.124476 -0.00139386 0)
(0.125475 -0.00142354 0)
(0.126475 -0.00145231 0)
(0.127474 -0.0014801 0)
(0.128471 -0.00150681 0)
(0.129466 -0.00153234 0)
(0.130457 -0.00155657 0)
(0.131444 -0.00157938 0)
(0.132424 -0.00160062 0)
(0.133398 -0.00162016 0)
(0.134364 -0.0016378 0)
(0.13532 -0.00165338 0)
(0.136266 -0.00166666 0)
(0.1372 -0.00167742 0)
(0.138121 -0.00168538 0)
(0.139028 -0.00169024 0)
(0.139919 -0.00169165 0)
(0.140793 -0.00168923 0)
(0.141648 -0.00168251 0)
(0.142482 -0.00167099 0)
(0.143294 -0.00165405 0)
(0.144081 -0.00163099 0)
(0.144842 -0.001601 0)
(0.145573 -0.00156312 0)
(0.146273 -0.00151618 0)
(0.146939 -0.00145884 0)
(0.147567 -0.00138945 0)
(0.148154 -0.00130602 0)
(0.148695 -0.00120614 0)
(0.149186 -0.00108682 0)
(0.149622 -0.000944369 0)
(0.149997 -0.00077415 0)
(0.150303 -0.000570294 0)
(0.150533 -0.000325294 0)
(0.150677 -2.9457e-05 0)
(0.150725 0.00032981 0)
(0.150663 0.000769319 0)
(0.15048 0.00131168 0)
(0.15016 0.0019875 0)
(0.149688 0.00283857 0)
(0.149053 0.00392217 0)
(0.148251 0.00531657 0)
(0.147293 0.00712681 0)
(0.146228 0.00948758 0)
(0.145164 0.0125535 0)
(0.144318 0.0164537 0)
(0.144064 0.0211397 0)
(0.144937 0.0259568 0)
(0.100024 -9.45683e-05 0)
(0.10016 -0.000181077 0)
(0.100383 -0.000259612 0)
(0.100674 -0.000332113 0)
(0.101027 -0.000400219 0)
(0.101437 -0.000464931 0)
(0.101897 -0.000526914 0)
(0.102404 -0.000586687 0)
(0.102954 -0.000644641 0)
(0.103543 -0.000701084 0)
(0.104168 -0.000756257 0)
(0.104827 -0.000810355 0)
(0.105517 -0.000863535 0)
(0.106236 -0.000915924 0)
(0.106981 -0.000967623 0)
(0.107752 -0.00101871 0)
(0.108547 -0.00106925 0)
(0.109363 -0.00111929 0)
(0.110199 -0.00116886 0)
(0.111054 -0.00121798 0)
(0.111926 -0.00126666 0)
(0.112814 -0.00131491 0)
(0.113717 -0.00136272 0)
(0.114633 -0.00141006 0)
(0.115561 -0.00145693 0)
(0.116501 -0.00150328 0)
(0.11745 -0.00154907 0)
(0.118409 -0.00159428 0)
(0.119375 -0.00163884 0)
(0.120347 -0.00168269 0)
(0.121325 -0.00172578 0)
(0.122308 -0.00176803 0)
(0.123294 -0.00180936 0)
(0.124283 -0.00184969 0)
(0.125273 -0.00188892 0)
(0.126263 -0.00192694 0)
(0.127253 -0.00196365 0)
(0.12824 -0.00199891 0)
(0.129225 -0.00203259 0)
(0.130207 -0.00206454 0)
(0.131183 -0.0020946 0)
(0.132153 -0.00212257 0)
(0.133116 -0.00214826 0)
(0.134071 -0.00217144 0)
(0.135017 -0.00219187 0)
(0.135952 -0.00220925 0)
(0.136875 -0.00222328 0)
(0.137785 -0.00223362 0)
(0.138681 -0.00223985 0)
(0.139561 -0.00224153 0)
(0.140423 -0.00223815 0)
(0.141267 -0.00222911 0)
(0.142091 -0.00221376 0)
(0.142892 -0.00219131 0)
(0.143669 -0.00216086 0)
(0.14442 -0.00212135 0)
(0.145143 -0.00207157 0)
(0.145836 -0.00201004 0)
(0.146495 -0.00193507 0)
(0.147118 -0.00184457 0)
(0.147702 -0.00173609 0)
(0.148243 -0.00160664 0)
(0.148738 -0.00145255 0)
(0.149181 -0.00126937 0)
(0.14957 -0.00105155 0)
(0.149897 -0.000792186 0)
(0.150157 -0.000482594 0)
(0.150345 -0.000111819 0)
(0.150453 0.000333972 0)
(0.150475 0.000872532 0)
(0.150406 0.00152689 0)
(0.150243 0.00232674 0)
(0.149985 0.0033103 0)
(0.149642 0.00452619 0)
(0.149233 0.00603488 0)
(0.148804 0.0079082 0)
(0.14843 0.0102233 0)
(0.148237 0.0130438 0)
(0.148415 0.0163742 0)
(0.149203 0.0200627 0)
(0.150816 0.0236357 0)
(0.100022 -0.000117402 0)
(0.100155 -0.000227094 0)
(0.100372 -0.000326368 0)
(0.100658 -0.000418142 0)
(0.101007 -0.000504341 0)
(0.101411 -0.000586216 0)
(0.101866 -0.000664617 0)
(0.102368 -0.000740201 0)
(0.102912 -0.000813468 0)
(0.103496 -0.000884806 0)
(0.104115 -0.000954524 0)
(0.104768 -0.00102287 0)
(0.105452 -0.00109004 0)
(0.106165 -0.0011562 0)
(0.106904 -0.00122147 0)
(0.107668 -0.00128596 0)
(0.108456 -0.00134974 0)
(0.109265 -0.00141288 0)
(0.110093 -0.00147541 0)
(0.110941 -0.00153736 0)
(0.111805 -0.00159875 0)
(0.112685 -0.00165957 0)
(0.11358 -0.00171982 0)
(0.114487 -0.00177947 0)
(0.115407 -0.0018385 0)
(0.116338 -0.00189687 0)
(0.117278 -0.00195453 0)
(0.118227 -0.00201142 0)
(0.119183 -0.00206748 0)
(0.120145 -0.00212264 0)
(0.121113 -0.00217681 0)
(0.122085 -0.00222991 0)
(0.123061 -0.00228184 0)
(0.124038 -0.00233248 0)
(0.125017 -0.00238171 0)
(0.125996 -0.00242941 0)
(0.126973 -0.00247543 0)
(0.127949 -0.00251961 0)
(0.128922 -0.00256179 0)
(0.129891 -0.00260176 0)
(0.130854 -0.00263933 0)
(0.131811 -0.00267426 0)
(0.132761 -0.0027063 0)
(0.133703 -0.00273517 0)
(0.134635 -0.00276056 0)
(0.135557 -0.00278212 0)
(0.136466 -0.00279946 0)
(0.137363 -0.00281215 0)
(0.138245 -0.0028197 0)
(0.139111 -0.00282155 0)
(0.13996 -0.00281707 0)
(0.140791 -0.00280555 0)
(0.141602 -0.00278617 0)
(0.142391 -0.00275799 0)
(0.143156 -0.00271991 0)
(0.143897 -0.00267067 0)
(0.14461 -0.00260881 0)
(0.145294 -0.0025326 0)
(0.145946 -0.00244001 0)
(0.146564 -0.00232863 0)
(0.147146 -0.00219561 0)
(0.147689 -0.00203751 0)
(0.148189 -0.00185023 0)
(0.148644 -0.00162875 0)
(0.14905 -0.00136703 0)
(0.149404 -0.00105762 0)
(0.149703 -0.000691408 0)
(0.149943 -0.000257196 0)
(0.150123 0.000258716 0)
(0.150242 0.000873 0)
(0.1503 0.00160638 0)
(0.150303 0.0024841 0)
(0.150263 0.00353642 0)
(0.150199 0.00479855 0)
(0.150144 0.0063095 0)
(0.150149 0.00810849 0)
(0.150291 0.0102269 0)
(0.150673 0.0126722 0)
(0.151423 0.0153987 0)
(0.152674 0.0182629 0)
(0.154496 0.020972 0)
(0.100019 -0.000140889 0)
(0.100149 -0.000275075 0)
(0.100361 -0.000396344 0)
(0.100642 -0.000508627 0)
(0.100984 -0.000614111 0)
(0.101382 -0.000714278 0)
(0.101831 -0.000810171 0)
(0.102327 -0.000902594 0)
(0.102864 -0.000992158 0)
(0.103441 -0.00107934 0)
(0.104053 -0.00116452 0)
(0.104699 -0.001248 0)
(0.105375 -0.00133003 0)
(0.10608 -0.00141079 0)
(0.106812 -0.00149046 0)
(0.107568 -0.00156915 0)
(0.108347 -0.00164696 0)
(0.109147 -0.00172396 0)
(0.109967 -0.0018002 0)
(0.110805 -0.00187571 0)
(0.111659 -0.00195052 0)
(0.11253 -0.00202461 0)
(0.113414 -0.00209799 0)
(0.114312 -0.00217062 0)
(0.115221 -0.00224246 0)
(0.11614 -0.00231348 0)
(0.117069 -0.00238361 0)
(0.118006 -0.00245278 0)
(0.118951 -0.00252092 0)
(0.119901 -0.00258793 0)
(0.120857 -0.00265371 0)
(0.121816 -0.00271816 0)
(0.122778 -0.00278116 0)
(0.123743 -0.00284256 0)
(0.124707 -0.00290222 0)
(0.125672 -0.00295999 0)
(0.126636 -0.00301569 0)
(0.127597 -0.00306913 0)
(0.128555 -0.00312009 0)
(0.129509 -0.00316836 0)
(0.130457 -0.00321367 0)
(0.131399 -0.00325575 0)
(0.132334 -0.0032943 0)
(0.13326 -0.00332898 0)
(0.134176 -0.00335942 0)
(0.135082 -0.0033852 0)
(0.135975 -0.00340586 0)
(0.136856 -0.00342088 0)
(0.137722 -0.00342968 0)
(0.138573 -0.00343162 0)
(0.139406 -0.00342594 0)
(0.140222 -0.00341181 0)
(0.141018 -0.00338829 0)
(0.141793 -0.00335427 0)
(0.142545 -0.0033085 0)
(0.143274 -0.00324954 0)
(0.143976 -0.00317573 0)
(0.144651 -0.00308512 0)
(0.145296 -0.00297544 0)
(0.14591 -0.00284405 0)
(0.146491 -0.00268782 0)
(0.147037 -0.00250308 0)
(0.147545 -0.00228545 0)
(0.148014 -0.00202976 0)
(0.148443 -0.00172982 0)
(0.148829 -0.00137826 0)
(0.149172 -0.000966274 0)
(0.149472 -0.00048339 0)
(0.149731 8.28041e-05 0)
(0.149951 0.000746367 0)
(0.150139 0.00152388 0)
(0.150305 0.00243427 0)
(0.150466 0.0034983 0)
(0.150647 0.00473749 0)
(0.150882 0.00617192 0)
(0.151216 0.00781634 0)
(0.151711 0.00967363 0)
(0.152439 0.0117247 0)
(0.153475 0.0139144 0)
(0.154884 0.0161347 0)
(0.156679 0.0182161 0)
(0.100016 -0.000165051 0)
(0.100143 -0.000324977 0)
(0.10035 -0.000469497 0)
(0.100624 -0.000603528 0)
(0.100959 -0.000729511 0)
(0.101351 -0.000849133 0)
(0.101792 -0.00096363 0)
(0.10228 -0.00107395 0)
(0.10281 -0.00118084 0)
(0.103378 -0.00128485 0)
(0.103982 -0.00138644 0)
(0.104619 -0.00148597 0)
(0.105287 -0.00158374 0)
(0.105983 -0.00167998 0)
(0.106705 -0.00177488 0)
(0.107451 -0.00186859 0)
(0.10822 -0.00196122 0)
(0.10901 -0.00205286 0)
(0.109819 -0.00214357 0)
(0.110646 -0.00223339 0)
(0.111489 -0.00232233 0)
(0.112348 -0.0024104 0)
(0.113221 -0.00249758 0)
(0.114106 -0.00258385 0)
(0.115002 -0.00266915 0)
(0.115909 -0.00275344 0)
(0.116825 -0.00283664 0)
(0.117748 -0.00291866 0)
(0.118679 -0.00299942 0)
(0.119615 -0.00307882 0)
(0.120556 -0.00315672 0)
(0.1215 -0.003233 0)
(0.122447 -0.00330751 0)
(0.123396 -0.00338009 0)
(0.124345 -0.00345058 0)
(0.125293 -0.00351878 0)
(0.12624 -0.00358449 0)
(0.127185 -0.00364748 0)
(0.128126 -0.00370749 0)
(0.129062 -0.00376428 0)
(0.129993 -0.00381752 0)
(0.130917 -0.00386692 0)
(0.131834 -0.0039121 0)
(0.132742 -0.00395268 0)
(0.13364 -0.00398822 0)
(0.134527 -0.00401825 0)
(0.135403 -0.00404222 0)
(0.136265 -0.00405955 0)
(0.137114 -0.00406957 0)
(0.137947 -0.00407154 0)
(0.138763 -0.00406462 0)
(0.139562 -0.00404786 0)
(0.140342 -0.00402019 0)
(0.141102 -0.00398041 0)
(0.14184 -0.00392712 0)
(0.142555 -0.00385875 0)
(0.143246 -0.00377348 0)
(0.143912 -0.00366923 0)
(0.144551 -0.0035436 0)
(0.145161 -0.0033938 0)
(0.145742 -0.00321661 0)
(0.146293 -0.0030083 0)
(0.146812 -0.00276453 0)
(0.147298 -0.00248024 0)
(0.147752 -0.00214957 0)
(0.148174 -0.00176573 0)
(0.148565 -0.00132089 0)
(0.148927 -0.000806087 0)
(0.149265 -0.000211163 0)
(0.149585 0.000475012 0)
(0.149896 0.00126381 0)
(0.150209 0.00216754 0)
(0.150544 0.00319816 0)
(0.150924 0.00436587 0)
(0.151378 0.0056771 0)
(0.151943 0.00713146 0)
(0.15266 0.00871776 0)
(0.153575 0.0104089 0)
(0.154727 0.0121566 0)
(0.156144 0.0138873 0)
(0.157819 0.0155051 0)
(0.100013 -0.000189919 0)
(0.100137 -0.000376767 0)
(0.100338 -0.000545785 0)
(0.100605 -0.000702798 0)
(0.100934 -0.000850504 0)
(0.101317 -0.000990767 0)
(0.10175 -0.00112501 0)
(0.102229 -0.00125432 0)
(0.10275 -0.00137957 0)
(0.103309 -0.00150142 0)
(0.103903 -0.0016204 0)
(0.10453 -0.00173692 0)
(0.105187 -0.00185135 0)
(0.105873 -0.00196395 0)
(0.106584 -0.00207494 0)
(0.107319 -0.0021845 0)
(0.108076 -0.00229276 0)
(0.108854 -0.00239983 0)
(0.109651 -0.00250576 0)
(0.110465 -0.00261062 0)
(0.111295 -0.00271442 0)
(0.112141 -0.00281716 0)
(0.112999 -0.00291883 0)
(0.11387 -0.00301938 0)
(0.114752 -0.00311877 0)
(0.115644 -0.00321693 0)
(0.116544 -0.00331378 0)
(0.117452 -0.00340922 0)
(0.118367 -0.00350314 0)
(0.119286 -0.00359541 0)
(0.12021 -0.0036859 0)
(0.121138 -0.00377446 0)
(0.122067 -0.00386091 0)
(0.122998 -0.00394506 0)
(0.123929 -0.00402673 0)
(0.124859 -0.00410568 0)
(0.125787 -0.00418169 0)
(0.126713 -0.00425448 0)
(0.127634 -0.00432377 0)
(0.128551 -0.00438926 0)
(0.129462 -0.00445061 0)
(0.130366 -0.00450744 0)
(0.131263 -0.00455935 0)
(0.132151 -0.0046059 0)
(0.133029 -0.00464659 0)
(0.133896 -0.00468088 0)
(0.134751 -0.00470818 0)
(0.135593 -0.00472781 0)
(0.136422 -0.00473905 0)
(0.137236 -0.00474107 0)
(0.138033 -0.00473294 0)
(0.138814 -0.00471365 0)
(0.139576 -0.00468203 0)
(0.14032 -0.00463677 0)
(0.141043 -0.00457641 0)
(0.141745 -0.00449928 0)
(0.142425 -0.0044035 0)
(0.143081 -0.00428691 0)
(0.143714 -0.00414709 0)
(0.144322 -0.00398127 0)
(0.144904 -0.00378628 0)
(0.145461 -0.00355855 0)
(0.145992 -0.003294 0)
(0.146498 -0.00298804 0)
(0.146979 -0.00263547 0)
(0.147438 -0.0022305 0)
(0.147877 -0.00176674 0)
(0.1483 -0.00123719 0)
(0.148713 -0.000634375 0)
(0.149124 4.95883e-05 0)
(0.149542 0.000821677 0)
(0.14998 0.00168804 0)
(0.150455 0.00265369 0)
(0.150985 0.0037209 0)
(0.151593 0.00488778 0)
(0.152306 0.0061464 0)
(0.153149 0.00748083 0)
(0.154148 0.0088652 0)
(0.155321 0.0102624 0)
(0.156678 0.0116248 0)
(0.158207 0.0128981 0)
(0.10001 -0.000215526 0)
(0.100131 -0.000430424 0)
(0.100327 -0.000625174 0)
(0.100587 -0.000806388 0)
(0.100907 -0.000977039 0)
(0.101281 -0.00113914 0)
(0.101705 -0.00129427 0)
(0.102174 -0.00144369 0)
(0.102685 -0.00158838 0)
(0.103233 -0.00172909 0)
(0.103817 -0.00186645 0)
(0.104432 -0.00200093 0)
(0.105078 -0.00213293 0)
(0.105751 -0.00226278 0)
(0.106449 -0.00239073 0)
(0.107171 -0.00251698 0)
(0.107915 -0.00264169 0)
(0.10868 -0.00276497 0)
(0.109462 -0.0028869 0)
(0.110262 -0.00300754 0)
(0.111078 -0.0031269 0)
(0.111908 -0.003245 0)
(0.112751 -0.00336181 0)
(0.113605 -0.00347729 0)
(0.114471 -0.00359138 0)
(0.115346 -0.003704 0)
(0.116229 -0.00381505 0)
(0.117119 -0.00392443 0)
(0.118015 -0.004032 0)
(0.118916 -0.00413763 0)
(0.119821 -0.00424115 0)
(0.120729 -0.00434239 0)
(0.121639 -0.00444116 0)
(0.12255 -0.00453723 0)
(0.123461 -0.00463039 0)
(0.12437 -0.00472038 0)
(0.125277 -0.00480693 0)
(0.126181 -0.00488975 0)
(0.127082 -0.00496851 0)
(0.127977 -0.00504286 0)
(0.128866 -0.00511242 0)
(0.129748 -0.00517679 0)
(0.130622 -0.0052355 0)
(0.131488 -0.00528807 0)
(0.132343 -0.00533394 0)
(0.133188 -0.00537253 0)
(0.134022 -0.00540318 0)
(0.134842 -0.00542516 0)
(0.135649 -0.00543768 0)
(0.136442 -0.00543986 0)
(0.13722 -0.00543071 0)
(0.137981 -0.00540915 0)
(0.138725 -0.00537396 0)
(0.139452 -0.00532379 0)
(0.140159 -0.00525713 0)
(0.140847 -0.0051723 0)
(0.141516 -0.00506741 0)
(0.142163 -0.00494036 0)
(0.14279 -0.00478878 0)
(0.143396 -0.00461005 0)
(0.14398 -0.00440124 0)
(0.144544 -0.00415912 0)
(0.145088 -0.0038801 0)
(0.145613 -0.00356025 0)
(0.146121 -0.00319534 0)
(0.146616 -0.00278081 0)
(0.1471 -0.00231192 0)
(0.147579 -0.0017838 0)
(0.148058 -0.00119164 0)
(0.148546 -0.000530872 0)
(0.149053 0.000202686 0)
(0.149589 0.0010104 0)
(0.150166 0.00189218 0)
(0.150801 0.00284562 0)
(0.151509 0.00386469 0)
(0.152306 0.00493891 0)
(0.153208 0.00605261 0)
(0.154228 0.00718452 0)
(0.155373 0.00830807 0)
(0.156642 0.00939288 0)
(0.158026 0.0104081 0)
(0.100006 -0.000241904 0)
(0.100126 -0.000485931 0)
(0.100315 -0.000707626 0)
(0.100567 -0.000914244 0)
(0.100879 -0.00110905 0)
(0.101244 -0.00129417 0)
(0.101658 -0.00147135 0)
(0.102116 -0.001642 0)
(0.102615 -0.0018072 0)
(0.103152 -0.00196782 0)
(0.103723 -0.00212455 0)
(0.104326 -0.00227796 0)
(0.104958 -0.00242848 0)
(0.105618 -0.00257648 0)
(0.106302 -0.00272226 0)
(0.10701 -0.00286603 0)
(0.107739 -0.00300799 0)
(0.108488 -0.00314827 0)
(0.109255 -0.00328694 0)
(0.110038 -0.00342409 0)
(0.110837 -0.00355972 0)
(0.11165 -0.00369385 0)
(0.112475 -0.00382644 0)
(0.113312 -0.00395746 0)
(0.114159 -0.00408683 0)
(0.115015 -0.00421446 0)
(0.115878 -0.00434025 0)
(0.116749 -0.00446406 0)
(0.117625 -0.00458576 0)
(0.118505 -0.00470517 0)
(0.119389 -0.00482213 0)
(0.120276 -0.00493642 0)
(0.121164 -0.00504784 0)
(0.122053 -0.00515614 0)
(0.122941 -0.00526106 0)
(0.123827 -0.00536232 0)
(0.124711 -0.00545963 0)
(0.125592 -0.00555264 0)
(0.126469 -0.00564101 0)
(0.12734 -0.00572434 0)
(0.128205 -0.00580223 0)
(0.129063 -0.0058742 0)
(0.129913 -0.00593977 0)
(0.130754 -0.00599841 0)
(0.131586 -0.00604951 0)
(0.132407 -0.00609245 0)
(0.133217 -0.00612652 0)
(0.134014 -0.00615096 0)
(0.134799 -0.00616493 0)
(0.135569 -0.0061675 0)
(0.136325 -0.00615766 0)
(0.137066 -0.00613429 0)
(0.137791 -0.00609617 0)
(0.1385 -0.00604194 0)
(0.139191 -0.00597012 0)
(0.139865 -0.00587906 0)
(0.140522 -0.00576695 0)
(0.141161 -0.00563182 0)
(0.141782 -0.0054715 0)
(0.142385 -0.00528363 0)
(0.142972 -0.00506564 0)
(0.143543 -0.00481478 0)
(0.144099 -0.0045281 0)
(0.144642 -0.00420253 0)
(0.145176 -0.00383487 0)
(0.145702 -0.00342189 0)
(0.146226 -0.00296049 0)
(0.146751 -0.00244775 0)
(0.147285 -0.00188121 0)
(0.147834 -0.00125904 0)
(0.148406 -0.000580159 0)
(0.149012 0.000155706 0)
(0.14966 0.000945243 0)
(0.150361 0.00178294 0)
(0.151125 0.00266148 0)
(0.151961 0.00357068 0)
(0.152877 0.0044972 0)
(0.15388 0.00542488 0)
(0.15497 0.00633535 0)
(0.156145 0.0072094 0)
(0.157396 0.00802916 0)
(0.100003 -0.000269075 0)
(0.10012 -0.000543266 0)
(0.100303 -0.00079309 0)
(0.100548 -0.00102629 0)
(0.10085 -0.00124643 0)
(0.101205 -0.00145575 0)
(0.101608 -0.00165614 0)
(0.102055 -0.00184912 0)
(0.102542 -0.00203591 0)
(0.103065 -0.00221748 0)
(0.103623 -0.00239459 0)
(0.104212 -0.00256788 0)
(0.10483 -0.00273785 0)
(0.105474 -0.0029049 0)
(0.106143 -0.00306936 0)
(0.106834 -0.0032315 0)
(0.107547 -0.00339152 0)
(0.108278 -0.00354955 0)
(0.109028 -0.00370571 0)
(0.109793 -0.00386006 0)
(0.110574 -0.00401264 0)
(0.111367 -0.00416344 0)
(0.112173 -0.00431244 0)
(0.11299 -0.00445957 0)
(0.113816 -0.00460478 0)
(0.114651 -0.00474794 0)
(0.115494 -0.00488895 0)
(0.116342 -0.00502765 0)
(0.117196 -0.00516389 0)
(0.118054 -0.00529749 0)
(0.118915 -0.00542823 0)
(0.119778 -0.0055559 0)
(0.120642 -0.00568026 0)
(0.121506 -0.00580104 0)
(0.12237 -0.00591795 0)
(0.123231 -0.00603068 0)
(0.12409 -0.0061389 0)
(0.124945 -0.00624225 0)
(0.125796 -0.00634034 0)
(0.126642 -0.00643274 0)
(0.127481 -0.00651901 0)
(0.128313 -0.00659866 0)
(0.129137 -0.00667114 0)
(0.129952 -0.0067359 0)
(0.130758 -0.00679231 0)
(0.131554 -0.0068397 0)
(0.132338 -0.00687733 0)
(0.133111 -0.00690442 0)
(0.133871 -0.00692011 0)
(0.134619 -0.00692345 0)
(0.135352 -0.00691343 0)
(0.136072 -0.00688895 0)
(0.136777 -0.0068488 0)
(0.137467 -0.00679167 0)
(0.138142 -0.00671616 0)
(0.138802 -0.00662073 0)
(0.139446 -0.00650373 0)
(0.140076 -0.00636339 0)
(0.140691 -0.00619781 0)
(0.141292 -0.00600501 0)
(0.14188 -0.00578287 0)
(0.142456 -0.00552921 0)
(0.143023 -0.00524181 0)
(0.143582 -0.00491846 0)
(0.144137 -0.00455702 0)
(0.144689 -0.00415552 0)
(0.145244 -0.00371227 0)
(0.145806 -0.00322601 0)
(0.14638 -0.00269606 0)
(0.146973 -0.00212253 0)
(0.14759 -0.00150642 0)
(0.148239 -0.000849705 0)
(0.148927 -0.000155128 0)
(0.149662 0.000572217 0)
(0.150448 0.00132341 0)
(0.15129 0.0020895 0)
(0.152193 0.00286005 0)
(0.153157 0.00362343 0)
(0.154182 0.00436729 0)
(0.155263 0.00507945 0)
(0.156394 0.0057494 0)
(0.0999992 -0.000297052 0)
(0.100114 -0.0006024 0)
(0.100292 -0.0008815 0)
(0.100528 -0.00114244 0)
(0.100821 -0.00138907 0)
(0.101165 -0.00162374 0)
(0.101556 -0.00184845 0)
(0.10199 -0.00206487 0)
(0.102464 -0.00227431 0)
(0.102974 -0.00247785 0)
(0.103517 -0.00267634 0)
(0.10409 -0.00287046 0)
(0.104692 -0.00306079 0)
(0.10532 -0.00324777 0)
(0.105971 -0.00343177 0)
(0.106645 -0.00361308 0)
(0.107339 -0.00379192 0)
(0.108052 -0.00396846 0)
(0.108782 -0.00414281 0)
(0.109528 -0.00431505 0)
(0.110288 -0.00448522 0)
(0.111061 -0.0046533 0)
(0.111845 -0.00481927 0)
(0.11264 -0.00498308 0)
(0.113444 -0.00514462 0)
(0.114256 -0.0053038 0)
(0.115075 -0.00546047 0)
(0.115899 -0.00561447 0)
(0.116729 -0.00576563 0)
(0.117562 -0.00591373 0)
(0.118398 -0.00605857 0)
(0.119235 -0.00619989 0)
(0.120073 -0.00633742 0)
(0.120911 -0.00647088 0)
(0.121748 -0.00659995 0)
(0.122582 -0.0067243 0)
(0.123414 -0.00684356 0)
(0.124242 -0.00695734 0)
(0.125065 -0.00706523 0)
(0.125883 -0.00716677 0)
(0.126694 -0.00726148 0)
(0.127498 -0.00734884 0)
(0.128295 -0.00742831 0)
(0.129082 -0.00749927 0)
(0.129861 -0.00756109 0)
(0.130629 -0.00761308 0)
(0.131387 -0.00765449 0)
(0.132134 -0.00768454 0)
(0.132869 -0.00770235 0)
(0.133592 -0.007707 0)
(0.134303 -0.00769752 0)
(0.135 -0.00767284 0)
(0.135684 -0.00763182 0)
(0.136355 -0.00757325 0)
(0.137013 -0.00749585 0)
(0.137658 -0.00739825 0)
(0.13829 -0.00727902 0)
(0.13891 -0.00713667 0)
(0.139517 -0.00696963 0)
(0.140115 -0.00677633 0)
(0.140703 -0.00655516 0)
(0.141283 -0.00630456 0)
(0.141857 -0.00602302 0)
(0.142427 -0.00570915 0)
(0.142997 -0.00536176 0)
(0.143568 -0.00497995 0)
(0.144146 -0.00456317 0)
(0.144733 -0.00411136 0)
(0.145333 -0.00362508 0)
(0.145953 -0.00310561 0)
(0.146595 -0.00255506 0)
(0.147266 -0.00197645 0)
(0.147969 -0.00137367 0)
(0.14871 -0.000751381 0)
(0.149492 -0.000114243 0)
(0.150318 0.000530216 0)
(0.151189 0.00117281 0)
(0.152103 0.0018046 0)
(0.153058 0.00241737 0)
(0.154051 0.00300345 0)
(0.155076 0.00355671 0)
(0.0999952 -0.000325833 0)
(0.100108 -0.000663285 0)
(0.10028 -0.000972757 0)
(0.100508 -0.00126254 0)
(0.10079 -0.00153678 0)
(0.101123 -0.00179792 0)
(0.101502 -0.00204805 0)
(0.101923 -0.00228896 0)
(0.102382 -0.0025221 0)
(0.102877 -0.00274861 0)
(0.103404 -0.00296943 0)
(0.103961 -0.00318532 0)
(0.104545 -0.00339689 0)
(0.105155 -0.00360465 0)
(0.105788 -0.003809 0)
(0.106443 -0.00401026 0)
(0.107117 -0.00420868 0)
(0.107809 -0.00440443 0)
(0.108518 -0.00459765 0)
(0.109242 -0.00478841 0)
(0.10998 -0.00497676 0)
(0.11073 -0.00516269 0)
(0.111491 -0.00534617 0)
(0.112262 -0.00552713 0)
(0.113041 -0.00570548 0)
(0.113828 -0.00588108 0)
(0.114622 -0.0060538 0)
(0.11542 -0.00622345 0)
(0.116223 -0.00638983 0)
(0.117029 -0.00655273 0)
(0.117838 -0.00671191 0)
(0.118648 -0.00686708 0)
(0.119458 -0.00701798 0)
(0.120267 -0.00716427 0)
(0.121075 -0.00730562 0)
(0.121881 -0.00744168 0)
(0.122683 -0.00757205 0)
(0.123482 -0.00769632 0)
(0.124275 -0.00781405 0)
(0.125063 -0.00792477 0)
(0.125845 -0.00802797 0)
(0.12662 -0.00812311 0)
(0.127387 -0.00820963 0)
(0.128145 -0.0082869 0)
(0.128895 -0.0083543 0)
(0.129635 -0.00841111 0)
(0.130365 -0.00845662 0)
(0.131085 -0.00849003 0)
(0.131794 -0.00851051 0)
(0.132491 -0.0085172 0)
(0.133177 -0.00850915 0)
(0.133852 -0.0084854 0)
(0.134514 -0.0084449 0)
(0.135166 -0.0083866 0)
(0.135806 -0.00830937 0)
(0.136434 -0.00821206 0)
(0.137053 -0.0080935 0)
(0.137661 -0.00795249 0)
(0.13826 -0.00778787 0)
(0.138852 -0.00759847 0)
(0.139437 -0.00738321 0)
(0.140017 -0.00714109 0)
(0.140595 -0.00687126 0)
(0.141171 -0.00657306 0)
(0.141749 -0.00624606 0)
(0.142332 -0.00589018 0)
(0.142922 -0.00550569 0)
(0.143522 -0.00509334 0)
(0.144136 -0.00465442 0)
(0.144767 -0.00419078 0)
(0.145418 -0.00370496 0)
(0.146093 -0.00320012 0)
(0.146793 -0.0026801 0)
(0.147522 -0.00214938 0)
(0.148282 -0.00161283 0)
(0.149074 -0.00107552 0)
(0.149898 -0.000542078 0)
(0.150753 -1.79729e-05 0)
(0.151637 0.000490809 0)
(0.152547 0.000978771 0)
(0.153476 0.00144103 0)
(0.0999909 -0.000355397 0)
(0.100101 -0.000725849 0)
(0.100268 -0.00106673 0)
(0.100487 -0.00138642 0)
(0.100759 -0.00168932 0)
(0.10108 -0.00197799 0)
(0.101446 -0.0022546 0)
(0.101853 -0.00252104 0)
(0.102297 -0.00277885 0)
(0.102775 -0.00302929 0)
(0.103285 -0.00327337 0)
(0.103824 -0.0035119 0)
(0.104389 -0.00374557 0)
(0.10498 -0.00397492 0)
(0.105593 -0.00420039 0)
(0.106226 -0.00442233 0)
(0.106879 -0.00464102 0)
(0.107549 -0.00485664 0)
(0.108235 -0.00506934 0)
(0.108936 -0.0052792 0)
(0.109649 -0.00548628 0)
(0.110374 -0.00569057 0)
(0.11111 -0.00589202 0)
(0.111855 -0.00609057 0)
(0.112608 -0.0062861 0)
(0.113368 -0.00647849 0)
(0.114134 -0.00666757 0)
(0.114905 -0.00685315 0)
(0.115679 -0.00703501 0)
(0.116456 -0.00721292 0)
(0.117235 -0.00738661 0)
(0.118015 -0.00755579 0)
(0.118795 -0.00772015 0)
(0.119574 -0.00787936 0)