/*--------------------------------*- C++ -*----------------------------------*\
| =========                 |                                                 |
| \\      /  F ield         | OpenFOAM: The Open Source CFD Toolbox           |
|  \\    /   O peration     | Version:  2106                                  |
|   \\  /    A nd           | Website:  www.openfoam.com                      |
|    \\/     M anipulation  |                                                 |
\*---------------------------------------------------------------------------*/
FoamFile
{
    version     2.0;
    format      ascii;
    arch        "LSB;label=32;scalar=64";
    class       surfaceScalarField;
    location    "1";
    object      phi;
}
// * * * * * * * * * * * * * * * * * * * * * * * * * * * * * * * * * * * * * //

dimensions      [1 0 -1 0 0 0 0];

oriented        oriented;

internalField   nonuniform List<scalar> 
23692
(
9.30758e-05
3.76128e-09
9.30661e-05
9.66552e-09
9.3047e-05
1.91561e-08
9.30137e-05
3.3245e-08
9.29618e-05
5.19778e-08
9.28878e-05
7.39772e-08
9.2791e-05
9.67728e-08
9.26734e-05
1.17644e-07
9.25389e-05
1.34461e-07
9.23927e-05
1.46194e-07
9.22398e-05
1.52958e-07
9.20841e-05
1.55687e-07
9.19284e-05
1.55681e-07
9.17742e-05
1.54213e-07
9.16219e-05
1.5228e-07
9.14714e-05
1.50524e-07
9.13221e-05
1.49266e-07
9.11735e-05
1.48595e-07
9.1025e-05
1.48465e-07
9.08763e-05
1.48775e-07
9.07269e-05
1.49408e-07
9.05766e-05
1.50274e-07
9.04253e-05
1.51306e-07
9.02728e-05
1.5246e-07
9.01191e-05
1.53719e-07
8.9964e-05
1.55079e-07
8.98075e-05
1.56543e-07
8.96494e-05
1.58119e-07
8.94895e-05
1.59822e-07
8.93279e-05
1.6166e-07
8.91642e-05
1.63644e-07
8.89985e-05
1.6579e-07
8.88304e-05
1.68104e-07
8.86598e-05
1.70593e-07
8.84865e-05
1.7327e-07
8.83103e-05
1.76141e-07
8.81311e-05
1.79215e-07
8.79486e-05
1.82503e-07
8.77626e-05
1.86015e-07
8.75729e-05
1.89764e-07
8.73791e-05
1.93763e-07
8.71811e-05
1.9803e-07
8.69785e-05
2.02586e-07
8.6771e-05
2.07456e-07
8.65584e-05
2.12665e-07
8.63401e-05
2.18248e-07
8.61159e-05
2.24243e-07
8.58852e-05
2.30697e-07
8.56475e-05
2.3766e-07
8.54023e-05
2.45195e-07
8.51489e-05
2.53373e-07
8.48866e-05
2.62279e-07
8.46146e-05
2.72011e-07
8.4332e-05
2.82682e-07
8.40375e-05
2.94429e-07
8.37301e-05
3.07414e-07
8.34083e-05
3.21828e-07
8.30704e-05
3.37899e-07
8.27145e-05
3.55904e-07
8.23383e-05
3.76177e-07
8.19392e-05
3.99132e-07
8.15139e-05
4.25272e-07
8.10587e-05
4.55232e-07
8.05689e-05
4.89806e-07
8.00388e-05
5.30012e-07
7.94617e-05
5.77159e-07
7.88287e-05
6.32962e-07
7.8129e-05
6.99699e-07
7.73486e-05
7.80441e-07
7.64692e-05
8.79396e-07
7.54667e-05
1.00244e-06
7.43088e-05
1.15791e-06
7.2951e-05
1.35787e-06
7.13309e-05
1.62004e-06
6.93599e-05
1.97098e-06
6.6909e-05
2.45092e-06
6.37878e-05
3.12124e-06
5.97112e-05
4.07659e-06
5.42375e-05
5.47368e-06
4.66355e-05
7.60203e-06
1.12303e-05
3.54052e-05
9.95954e-05
7.66869e-09
9.95852e-05
1.98801e-08
9.95649e-05
3.9452e-08
9.95297e-05
6.85141e-08
9.94744e-05
1.07198e-07
9.93958e-05
1.52661e-07
9.92927e-05
1.99815e-07
9.91673e-05
2.43024e-07
9.90239e-05
2.77876e-07
9.88679e-05
3.02228e-07
9.87046e-05
3.16297e-07
9.85382e-05
3.22009e-07
9.83719e-05
3.22054e-07
9.8207e-05
3.19055e-07
9.80442e-05
3.15077e-07
9.78833e-05
3.11451e-07
9.77237e-05
3.08844e-07
9.75649e-05
3.07447e-07
9.74062e-05
3.07171e-07
9.72471e-05
3.07795e-07
9.70875e-05
3.09095e-07
9.69269e-05
3.10875e-07
9.67652e-05
3.12996e-07
9.66023e-05
3.15379e-07
9.6438e-05
3.1798e-07
9.62723e-05
3.20787e-07
9.6105e-05
3.23813e-07
9.59361e-05
3.27073e-07
9.57653e-05
3.30592e-07
9.55926e-05
3.34394e-07
9.54177e-05
3.38501e-07
9.52406e-05
3.42937e-07
9.50609e-05
3.47718e-07
9.48787e-05
3.52867e-07
9.46935e-05
3.58401e-07
9.45053e-05
3.64334e-07
9.43139e-05
3.70688e-07
9.41189e-05
3.77482e-07
9.39202e-05
3.84738e-07
9.37174e-05
3.9248e-07
9.35105e-05
4.00741e-07
9.32989e-05
4.09553e-07
9.30826e-05
4.1896e-07
9.2861e-05
4.2901e-07
9.26339e-05
4.39761e-07
9.24009e-05
4.51281e-07
9.21615e-05
4.63648e-07
9.19152e-05
4.76956e-07
9.16616e-05
4.91312e-07
9.13999e-05
5.06842e-07
9.11296e-05
5.23691e-07
9.08498e-05
5.42032e-07
9.05598e-05
5.62064e-07
9.02585e-05
5.84023e-07
8.99447e-05
6.08183e-07
8.96172e-05
6.34872e-07
8.92746e-05
6.64476e-07
8.8915e-05
6.97461e-07
8.85365e-05
7.34384e-07
8.81368e-05
7.7592e-07
8.7713e-05
8.22892e-07
8.7262e-05
8.76316e-07
8.67798e-05
9.37451e-07
8.62617e-05
1.00788e-06
8.57021e-05
1.0896e-06
8.50941e-05
1.18518e-06
8.44291e-05
1.29796e-06
8.36965e-05
1.43232e-06
8.28828e-05
1.59412e-06
8.19709e-05
1.79126e-06
8.09388e-05
2.03459e-06
7.97575e-05
2.33918e-06
7.83892e-05
2.72623e-06
7.67834e-05
3.2258e-06
7.48737e-05
3.88067e-06
7.25734e-05
4.75124e-06
6.97745e-05
5.92015e-06
6.63578e-05
7.49325e-06
6.22384e-05
9.59309e-06
5.75477e-05
1.22927e-05
1.51824e-05
5.35955e-05
0.000106572
1.17348e-08
0.000106561
3.06371e-08
0.00010654
6.08172e-08
0.000106502
1.0568e-07
0.000106444
1.65463e-07
0.000106361
2.35806e-07
0.000106252
3.08866e-07
0.000106119
3.75923e-07
0.000105967
4.30119e-07
0.000105801
4.68105e-07
0.000105627
4.90172e-07
0.00010545
4.99269e-07
0.000105272
4.99527e-07
0.000105096
4.95013e-07
0.000104923
4.88925e-07
0.000104751
4.83333e-07
0.00010458
4.79291e-07
0.000104411
4.77101e-07
0.000104241
4.76632e-07
0.000104071
4.77564e-07
0.000103901
4.79542e-07
0.00010373
4.8227e-07
0.000103557
4.85537e-07
0.000103383
4.89211e-07
0.000103208
4.93231e-07
0.000103031
4.97578e-07
0.000102853
5.02265e-07
0.000102672
5.0732e-07
0.00010249
5.12775e-07
0.000102306
5.18672e-07
0.000102119
5.25043e-07
0.00010193
5.3192e-07
0.000101739
5.39336e-07
0.000101544
5.47319e-07
0.000101347
5.55895e-07
0.000101146
5.65089e-07
0.000100942
5.74933e-07
0.000100734
5.85453e-07
0.000100522
5.96686e-07
0.000100306
6.08672e-07
0.000100085
6.21453e-07
9.98595e-05
6.35086e-07
9.96289e-05
6.49634e-07
9.93927e-05
6.65171e-07
9.91507e-05
6.81785e-07
9.89024e-05
6.99583e-07
9.86473e-05
7.18681e-07
9.83851e-05
7.39223e-07
9.8115e-05
7.61374e-07
9.78365e-05
7.85323e-07
9.75489e-05
8.11294e-07
9.72514e-05
8.39547e-07
9.69431e-05
8.70384e-07
9.66229e-05
9.0416e-07
9.62898e-05
9.41293e-07
9.59424e-05
9.82275e-07
9.55792e-05
1.02769e-06
9.51985e-05
1.07822e-06
9.47981e-05
1.13472e-06
9.43759e-05
1.19817e-06
9.3929e-05
1.2698e-06
9.34542e-05
1.35111e-06
9.29477e-05
1.44392e-06
9.2405e-05
1.55054e-06
9.18208e-05
1.67385e-06
9.11885e-05
1.81749e-06
9.05002e-05
1.98617e-06
8.97466e-05
2.18595e-06
8.89159e-05
2.42481e-06
8.79939e-05
2.71327e-06
8.69631e-05
3.06541e-06
8.58021e-05
3.50013e-06
8.44855e-05
4.0429e-06
8.29834e-05
4.72793e-06
8.12637e-05
5.60032e-06
7.92976e-05
6.71733e-06
7.70726e-05
8.14519e-06
7.46209e-05
9.94497e-06
7.20808e-05
1.21332e-05
6.98067e-05
1.45668e-05
1.66378e-05
6.83513e-05
0.000114037
1.597e-08
0.000114025
4.18948e-08
0.000114003
8.3153e-08
0.000113964
1.44542e-07
0.000113903
2.26447e-07
0.000113816
3.22981e-07
0.000113702
4.23441e-07
0.000113562
5.15878e-07
0.000113401
5.90839e-07
0.000113225
6.43634e-07
0.000113041
6.74578e-07
0.000112853
6.87631e-07
0.000112664
6.88425e-07
0.000112476
6.82522e-07
0.000112291
6.74325e-07
0.000112107
6.66707e-07
0.000111926
6.61137e-07
0.000111745
6.58072e-07
0.000111564
6.57351e-07
0.000111383
6.58548e-07
0.000111201
6.61194e-07
0.000111019
6.64885e-07
0.000110835
6.6933e-07
0.00011065
6.74354e-07
0.000110463
6.79866e-07
0.000110275
6.85838e-07
0.000110085
6.92289e-07
0.000109893
6.99252e-07
0.000109699
7.06772e-07
0.000109503
7.14901e-07
0.000109304
7.23682e-07
0.000109103
7.33162e-07
0.000108899
7.43381e-07
0.000108692
7.54375e-07
0.000108481
7.66183e-07
0.000108268
7.78839e-07
0.00010805
7.92382e-07
0.000107829
8.06852e-07
0.000107603
8.22296e-07
0.000107373
8.38765e-07
0.000107138
8.56323e-07
0.000106898
8.75042e-07
0.000106653
8.95007e-07
0.000106402
9.16319e-07
0.000106144
9.39101e-07
0.00010588
9.63489e-07
0.000105609
9.89647e-07
0.000105331
1.01776e-06
0.000105044
1.04806e-06
0.000104749
1.0808e-06
0.000104444
1.11627e-06
0.000104129
1.15482e-06
0.000103802
1.19687e-06
0.000103463
1.24286e-06
0.000103111
1.29337e-06
0.000102744
1.34904e-06
0.000102362
1.41064e-06
0.000101961
1.47907e-06
0.00010154
1.55542e-06
0.000101097
1.64099e-06
0.00010063
1.73734e-06
0.000100134
1.84638e-06
9.96078e-05
1.97044e-06
9.9046e-05
2.11239e-06
9.84441e-05
2.27578e-06
9.77965e-05
2.46506e-06
9.70968e-05
2.68587e-06
9.63374e-05
2.94531e-06
9.55097e-05
3.25251e-06
9.46038e-05
3.61917e-06
9.36089e-05
4.06036e-06
9.25135e-05
4.59546e-06
9.13073e-05
5.24916e-06
8.9983e-05
6.05224e-06
8.85418e-05
7.04147e-06
8.70021e-05
8.257e-06
8.54135e-05
9.73383e-06
8.38767e-05
1.14818e-05
8.25654e-05
1.34445e-05
8.1711e-05
1.54211e-05
1.69493e-05
8.13995e-05
0.000122025
2.03776e-08
0.000122013
5.36123e-08
0.00012199
1.06322e-07
0.000121949
1.84815e-07
0.000121886
2.89695e-07
0.000121796
4.13569e-07
0.000121676
5.42829e-07
0.00012153
6.62183e-07
0.000121361
7.59419e-07
0.000121177
8.28382e-07
0.000120982
8.69302e-07
0.000120782
8.87114e-07
0.000120582
8.8896e-07
0.000120382
8.81939e-07
0.000120185
8.71726e-07
0.00011999
8.62057e-07
0.000119796
8.54883e-07
0.000119603
8.50838e-07
0.000119411
8.49771e-07
0.000119218
8.51167e-07
0.000119025
8.54437e-07
0.000118831
8.59077e-07
0.000118635
8.6472e-07
0.000118439
8.71133e-07
0.00011824
8.782e-07
0.00011804
8.85885e-07
0.000117838
8.94199e-07
0.000117634
9.03185e-07
0.000117428
9.12899e-07
0.00011722
9.234e-07
0.000117009
9.34747e-07
0.000116795
9.46991e-07
0.000116578
9.60185e-07
0.000116358
9.74376e-07
0.000116135
9.89607e-07
0.000115907
1.00593e-06
0.000115676
1.02338e-06
0.000115441
1.04201e-06
0.000115202
1.06189e-06
0.000114957
1.08307e-06
0.000114708
1.10564e-06
0.000114453
1.12969e-06
0.000114193
1.15533e-06
0.000113927
1.18268e-06
0.000113654
1.21189e-06
0.000113374
1.24314e-06
0.000113087
1.27664e-06
0.000112792
1.31261e-06
0.000112489
1.35134e-06
0.000112177
1.39314e-06
0.000111855
1.43839e-06
0.000111522
1.48751e-06
0.000111178
1.541e-06
0.000110821
1.59944e-06
0.000110451
1.66351e-06
0.000110066
1.734e-06
0.000109665
1.81183e-06
0.000109246
1.8981e-06
0.000108807
1.99411e-06
0.000108347
2.10139e-06
0.000107863
2.22178e-06
0.000107351
2.3575e-06
0.000106811
2.51121e-06
0.000106237
2.68617e-06
0.000105626
2.88634e-06
0.000104975
3.11658e-06
0.000104278
3.38288e-06
0.00010353
3.69265e-06
0.000102728
4.05507e-06
0.000101866
4.48148e-06
0.00010094
4.98583e-06
9.99504e-05
5.58508e-06
9.89002e-05
6.29934e-06
9.78011e-05
7.15139e-06
9.66776e-05
8.16494e-06
9.55745e-05
9.36008e-06
9.45644e-05
1.07439e-05
9.37527e-05
1.22935e-05
9.32691e-05
1.39281e-05
9.32177e-05
1.54725e-05
1.66291e-05
9.3538e-05
0.000130572
2.49666e-08
0.00013056
6.57325e-08
0.000130536
1.30148e-07
0.000130495
2.26136e-07
0.00013043
3.54609e-07
0.000130337
5.06754e-07
0.000130213
6.6607e-07
0.000130062
8.13836e-07
0.000129886
9.34965e-07
0.000129693
1.02165e-06
0.000129488
1.07391e-06
0.000129278
1.09755e-06
0.000129066
1.10119e-06
0.000128854
1.0935e-06
0.000128644
1.08148e-06
0.000128437
1.0698e-06
0.00012823
1.06095e-06
0.000128026
1.05582e-06
0.000127821
1.05428e-06
0.000127616
1.05576e-06
0.000127411
1.05958e-06
0.000127205
1.06513e-06
0.000126998
1.07196e-06
0.000126789
1.07978e-06
0.000126579
1.08846e-06
0.000126367
1.09793e-06
0.000126153
1.10821e-06
0.000125937
1.11933e-06
0.000125718
1.13137e-06
0.000125497
1.14439e-06
0.000125274
1.15846e-06
0.000125047
1.17363e-06
0.000124817
1.18998e-06
0.000124584
1.20754e-06
0.000124347
1.22639e-06
0.000124107
1.24656e-06
0.000123862
1.26812e-06
0.000123613
1.29112e-06
0.000123359
1.31564e-06
0.0001231
1.34175e-06
0.000122837
1.36955e-06
0.000122567
1.39914e-06
0.000122292
1.43067e-06
0.00012201
1.46427e-06
0.000121722
1.50012e-06
0.000121427
1.53844e-06
0.000121124
1.57947e-06
0.000120813
1.62349e-06
0.000120493
1.67083e-06
0.000120165
1.72185e-06
0.000119826
1.777e-06
0.000119477
1.83678e-06
0.000119116
1.90177e-06
0.000118743
1.97264e-06
0.000118356
2.05017e-06
0.000117955
2.13526e-06
0.000117538
2.22897e-06
0.000117103
2.33254e-06
0.00011665
2.4474e-06
0.000116176
2.57526e-06
0.00011568
2.71813e-06
0.000115159
2.8784e-06
0.000114611
3.0589e-06
0.000114034
3.263e-06
0.000113426
3.49475e-06
0.000112784
3.75899e-06
0.000112105
4.0615e-06
0.000111388
4.40921e-06
0.000110633
4.81036e-06
0.00010984
5.27465e-06
0.000109012
5.81335e-06
0.000108158
6.43918e-06
0.000107292
7.16586e-06
0.000106436
8.00691e-06
0.000105628
8.97326e-06
0.000104919
1.00689e-05
0.00010438
1.12833e-05
0.000104093
1.25806e-05
0.000104135
1.38853e-05
0.000104538
1.50698e-05
1.59568e-05
0.00010521
0.000139718
2.97282e-08
0.000139706
7.81929e-08
0.000139681
1.54433e-07
0.000139639
2.68082e-07
0.000139573
4.20494e-07
0.000139479
6.01564e-07
0.000139353
7.91986e-07
0.000139197
9.69604e-07
0.000139016
1.11631e-06
0.000138815
1.22249e-06
0.000138601
1.28771e-06
0.00013838
1.31855e-06
0.000138156
1.325e-06
0.000137932
1.3173e-06
0.00013771
1.30382e-06
0.00013749
1.29024e-06
0.000137271
1.27968e-06
0.000137053
1.27333e-06
0.000136837
1.27116e-06
0.00013662
1.27259e-06
0.000136402
1.27684e-06
0.000136184
1.28321e-06
0.000135965
1.29119e-06
0.000135744
1.30043e-06
0.000135522
1.31076e-06
0.000135298
1.32208e-06
0.000135072
1.33441e-06
0.000134843
1.34779e-06
0.000134612
1.36229e-06
0.000134379
1.37797e-06
0.000134142
1.39491e-06
0.000133903
1.41318e-06
0.00013366
1.43285e-06
0.000133414
1.45397e-06
0.000133163
1.4766e-06
0.000132909
1.50081e-06
0.000132651
1.52666e-06
0.000132387
1.55421e-06
0.00013212
1.58355e-06
0.000131847
1.61476e-06
0.000131568
1.64796e-06
0.000131284
1.68327e-06
0.000130994
1.72084e-06
0.000130697
1.76084e-06
0.000130394
1.80348e-06
0.000130083
1.84899e-06
0.000129765
1.89765e-06
0.000129439
1.94979e-06
0.000129104
2.00577e-06
0.00012876
2.06602e-06
0.000128406
2.13101e-06
0.000128041
2.20133e-06
0.000127665
2.2776e-06
0.000127277
2.36057e-06
0.000126877
2.45109e-06
0.000126462
2.55016e-06
0.000126032
2.65889e-06
0.000125586
2.77861e-06
0.000125122
2.91083e-06
0.00012464
3.05733e-06
0.000124138
3.22016e-06
0.000123615
3.40172e-06
0.000123069
3.60479e-06
0.000122499
3.83263e-06
0.000121905
4.08902e-06
0.000121286
4.37835e-06
0.000120641
4.70571e-06
0.000119974
5.07689e-06
0.000119286
5.49847e-06
0.000118583
5.97773e-06
0.000117873
6.52246e-06
0.000117172
7.14061e-06
0.000116498
7.83948e-06
0.000115881
8.62444e-06
0.000115357
9.49678e-06
0.000114976
1.04504e-05
0.000114792
1.14672e-05
0.000114861
1.25113e-05
0.000115223
1.35235e-05
0.000115873
1.44197e-05
1.50987e-05
0.000116731
0.000149505
3.46622e-08
0.000149492
9.09179e-08
0.000149468
1.78957e-07
0.000149425
3.10194e-07
0.000149359
4.86576e-07
0.000149264
6.96913e-07
0.000149137
9.19253e-07
0.000148978
1.12804e-06
0.000148793
1.30207e-06
0.000148585
1.42967e-06
0.000148363
1.50978e-06
0.000148132
1.54948e-06
0.000147897
1.56004e-06
0.000147661
1.55323e-06
0.000147426
1.53881e-06
0.000147193
1.52354e-06
0.000146962
1.51126e-06
0.000146731
1.50357e-06
0.000146502
1.5006e-06
0.000146273
1.50179e-06
0.000146043
1.50631e-06
0.000145813
1.5134e-06
0.000145582
1.52246e-06
0.000145349
1.5331e-06
0.000145115
1.54508e-06
0.000144879
1.55832e-06
0.00014464
1.57279e-06
0.000144399
1.58853e-06
0.000144156
1.60561e-06
0.00014391
1.6241e-06
0.000143661
1.64406e-06
0.000143408
1.66559e-06
0.000143153
1.68873e-06
0.000142893
1.71357e-06
0.000142629
1.74016e-06
0.000142362
1.76856e-06
0.000142089
1.79885e-06
0.000141813
1.8311e-06
0.000141531
1.8654e-06
0.000141244
1.90185e-06
0.000140951
1.94057e-06
0.000140653
1.98169e-06
0.000140348
2.02539e-06
0.000140037
2.07185e-06
0.000139719
2.12131e-06
0.000139394
2.17402e-06
0.000139061
2.23029e-06
0.000138721
2.29046e-06
0.000138372
2.35495e-06
0.000138013
2.4242e-06
0.000137646
2.49875e-06
0.000137268
2.5792e-06
0.000136879
2.66623e-06
0.000136479
2.76061e-06
0.000136067
2.86325e-06
0.000135642
2.97516e-06
0.000135203
3.09749e-06
0.00013475
3.23157e-06
0.000134282
3.37891e-06
0.000133798
3.54124e-06
0.000133298
3.72051e-06
0.000132781
3.91898e-06
0.000132246
4.13918e-06
0.000131695
4.38401e-06
0.000131127
4.65669e-06
0.000130545
4.96085e-06
0.00012995
5.30047e-06
0.000129347
5.67985e-06
0.000128742
6.10355e-06
0.000128144
6.57614e-06
0.000127564
7.10196e-06
0.00012702
7.68459e-06
0.000126533
8.32611e-06
0.000126132
9.02604e-06
0.000125849
9.77977e-06
0.000125723
1.05766e-05
0.000125792
1.13975e-05
0.000126091
1.22125e-05
0.000126635
1.29798e-05
0.000127408
1.3647e-05
1.41577e-05
0.000128349
0.000159977
3.97585e-08
0.000159964
1.03847e-07
0.00015994
2.03521e-07
0.000159898
3.52027e-07
0.000159832
5.52095e-07
0.000159737
7.91699e-07
0.00015961
1.04649e-06
0.000159451
1.28761e-06
0.000159262
1.49068e-06
0.00015905
1.6418e-06
0.000158821
1.73895e-06
0.000158581
1.78947e-06
0.000158335
1.80574e-06
0.000158087
1.80095e-06
0.00015784
1.78628e-06
0.000157594
1.76965e-06
0.000157349
1.75572e-06
0.000157106
1.74658e-06
0.000156864
1.74263e-06
0.000156623
1.74336e-06
0.000156381
1.74797e-06
0.000156139
1.75562e-06
0.000155896
1.76567e-06
0.000155651
1.77766e-06
0.000155405
1.79131e-06
0.000155157
1.8065e-06
0.000154906
1.82319e-06
0.000154653
1.84139e-06
0.000154398
1.86116e-06
0.000154139
1.88258e-06
0.000153878
1.90572e-06
0.000153613
1.93063e-06
0.000153344
1.95741e-06
0.000153071
1.9861e-06
0.000152795
2.01677e-06
0.000152514
2.0495e-06
0.000152228
2.08435e-06
0.000151938
2.1214e-06
0.000151643
2.16075e-06
0.000151342
2.2025e-06
0.000151036
2.24678e-06
0.000150724
2.29373e-06
0.000150406
2.34355e-06
0.000150081
2.39643e-06
0.00014975
2.45261e-06
0.000149411
2.51237e-06
0.000149066
2.57604e-06
0.000148712
2.64399e-06
0.00014835
2.71662e-06
0.00014798
2.79443e-06
0.000147601
2.87796e-06
0.000147212
2.96782e-06
0.000146814
3.06471e-06
0.000146405
3.16941e-06
0.000145986
3.2828e-06
0.000145555
3.40589e-06
0.000145113
3.53979e-06
0.000144658
3.68576e-06
0.000144192
3.84521e-06
0.000143714
4.0197e-06
0.000143223
4.211e-06
0.000142721
4.42102e-06
0.000142208
4.65192e-06
0.000141686
4.906e-06
0.000141157
5.18577e-06
0.000140624
5.49385e-06
0.000140092
5.83296e-06
0.000139566
6.2058e-06
0.000139054
6.61486e-06
0.000138568
7.06227e-06
0.000138121
7.54942e-06
0.000137729
8.07653e-06
0.000137413
8.64214e-06
0.000137197
9.2423e-06
0.000137107
9.86977e-06
0.00013717
1.0513e-05
0.000137412
1.11553e-05
0.000137851
1.17743e-05
0.000138489
1.2342e-05
0.000139308
1.28271e-05
1.31989e-05
0.000140267
0.000171183
4.50186e-08
0.00017117
1.16931e-07
0.000171145
2.27952e-07
0.000171104
3.932e-07
0.00017104
6.16371e-07
0.000170947
8.84917e-07
0.000170821
1.17238e-06
0.000170662
1.44679e-06
0.000170472
1.68057e-06
0.000170256
1.85736e-06
0.000170021
1.97388e-06
0.000169773
2.03744e-06
0.000169518
2.06126e-06
0.000169259
2.05986e-06
0.000168999
2.04583e-06
0.000168741
2.02831e-06
0.000168484
2.01288e-06
0.000168228
2.00223e-06
0.000167973
1.9971e-06
0.00016772
1.99718e-06
0.000167466
2.00166e-06
0.000167212
2.00971e-06
0.000166957
2.02062e-06
0.000166701
2.03389e-06
0.000166443
2.04919e-06
0.000166183
2.06635e-06
0.000165921
2.08531e-06
0.000165656
2.10605e-06
0.000165389
2.12863e-06
0.000165118
2.15309e-06
0.000164844
2.17951e-06
0.000164567
2.20794e-06
0.000164286
2.23845e-06
0.000164001
2.27111e-06
0.000163712
2.30597e-06
0.000163418
2.34309e-06
0.00016312
2.38256e-06
0.000162817
2.42445e-06
0.000162509
2.46886e-06
0.000162195
2.51589e-06
0.000161877
2.56568e-06
0.000161552
2.61838e-06
0.000161221
2.67418e-06
0.000160884
2.73328e-06
0.000160541
2.79594e-06
0.000160191
2.86244e-06
0.000159834
2.93311e-06
0.00015947
3.00832e-06
0.000159098
3.0885e-06
0.000158718
3.17412e-06
0.00015833
3.26573e-06
0.000157934
3.36392e-06
0.00015753
3.46936e-06
0.000157116
3.58282e-06
0.000156694
3.70511e-06
0.000156263
3.83716e-06
0.000155822
3.97999e-06
0.000155373
4.13471e-06
0.000154916
4.30255e-06
0.000154451
4.48482e-06
0.000153979
4.68295e-06
0.000153502
4.89848e-06
0.00015302
5.13298e-06
0.000152538
5.38812e-06
0.000152059
5.66554e-06
0.000151586
5.96684e-06
0.000151125
6.29349e-06
0.000150684
6.64666e-06
0.000150272
7.02712e-06
0.000149899
7.43503e-06
0.000149579
7.86963e-06
0.000149327
8.329e-06
0.000149159
8.80967e-06
0.000149095
9.30626e-06
0.000149154
9.81105e-06
0.000149353
1.03137e-05
0.000149707
1.08011e-05
0.000150224
1.12574e-05
0.000150901
1.1665e-05
0.000151723
1.20055e-05
1.22624e-05
0.000152659
0.000183174
5.04459e-08
0.00018316
1.30141e-07
0.000183136
2.52147e-07
0.000183096
4.33451e-07
0.000183033
6.78905e-07
0.000182943
9.75765e-07
0.000182819
1.29583e-06
0.000182662
1.60425e-06
0.000182472
1.87025e-06
0.000182255
2.07483e-06
0.000182015
2.21313e-06
0.000181761
2.29209e-06
0.000181496
2.32551e-06
0.000181227
2.32908e-06
0.000180956
2.31676e-06
0.000180686
2.29896e-06
0.000180416
2.28228e-06
0.000180148
2.27013e-06
0.000179882
2.2637e-06
0.000179616
2.2629e-06
0.000179351
2.26706e-06
0.000179085
2.27532e-06
0.000178819
2.28697e-06
0.000178551
2.30143e-06
0.000178282
2.31834e-06
0.000178011
2.33748e-06
0.000177737
2.35874e-06
0.000177461
2.38208e-06
0.000177182
2.40754e-06
0.0001769
2.43513e-06
0.000176615
2.46492e-06
0.000176326
2.49695e-06
0.000176033
2.53127e-06
0.000175736
2.56795e-06
0.000175435
2.60703e-06
0.00017513
2.64857e-06
0.00017482
2.69265e-06
0.000174505
2.73933e-06
0.000174185
2.78871e-06
0.00017386
2.8409e-06
0.00017353
2.89603e-06
0.000173194
2.95425e-06
0.000172852
3.01574e-06
0.000172505
3.08071e-06
0.000172151
3.14941e-06
0.000171792
3.22211e-06
0.000171426
3.29915e-06
0.000171053
3.38087e-06
0.000170674
3.4677e-06
0.000170288
3.56007e-06
0.000169895
3.6585e-06
0.000169495
3.76355e-06
0.000169089
3.87583e-06
0.000168676
3.99602e-06
0.000168256
4.12485e-06
0.00016783
4.26311e-06
0.000167398
4.41167e-06
0.000166962
4.57143e-06
0.000166521
4.74335e-06
0.000166077
4.92846e-06
0.000165632
5.12777e-06
0.000165189
5.34233e-06
0.000164748
5.57316e-06
0.000164315
5.82121e-06
0.000163894
6.0873e-06
0.000163488
6.37208e-06
0.000163106
6.67591e-06
0.000162754
6.99876e-06
0.000162441
7.3401e-06
0.000162177
7.69871e-06
0.000161974
8.07257e-06
0.000161844
8.45866e-06
0.000161801
8.85276e-06
0.000161858
9.24936e-06
0.000162028
9.64153e-06
0.000162321
1.00209e-05
0.000162744
1.03779e-05
0.000163299
1.0702e-05
0.000163982
1.09822e-05
0.00016478
1.1208e-05
1.13708e-05
0.000165671
0.000196004
5.6047e-08
0.000195991
1.43488e-07
0.000195967
2.76085e-07
0.000195928
4.72665e-07
0.000195867
7.39422e-07
0.000195779
1.06375e-06
0.000195659
1.41608e-06
0.000195504
1.75895e-06
0.000195316
2.05846e-06
0.000195098
2.29281e-06
0.000194856
2.45526e-06
0.000194596
2.55202e-06
0.000194324
2.5972e-06
0.000194046
2.60747e-06
0.000193765
2.59809e-06
0.000193483
2.58078e-06
0.000193202
2.56323e-06
0.000192922
2.54968e-06
0.000192644
2.54188e-06
0.000192367
2.54007e-06
0.00019209
2.5437e-06
0.000191814
2.55201e-06
0.000191536
2.56425e-06
0.000191258
2.57981e-06
0.000190978
2.59827e-06
0.000190696
2.61936e-06
0.000190412
2.64294e-06
0.000190125
2.66892e-06
0.000189835
2.69729e-06
0.000189542
2.72806e-06
0.000189246
2.76126e-06
0.000188946
2.79691e-06
0.000188642
2.83506e-06
0.000188335
2.87575e-06
0.000188023
2.91901e-06
0.000187706
2.96491e-06
0.000187385
3.01348e-06
0.00018706
3.06481e-06
0.00018673
3.11897e-06
0.000186395
3.17606e-06
0.000186054
3.23621e-06
0.000185709
3.29956e-06
0.000185358
3.36628e-06
0.000185003
3.43657e-06
0.000184641
3.51066e-06
0.000184275
3.5888e-06
0.000183903
3.67131e-06
0.000183525
3.75851e-06
0.000183142
3.85076e-06
0.000182753
3.94849e-06
0.00018236
4.05213e-06
0.000181961
4.16217e-06
0.000181558
4.27914e-06
0.00018115
4.40361e-06
0.000180739
4.53615e-06
0.000180325
4.67741e-06
0.000179908
4.82803e-06
0.000179491
4.98868e-06
0.000179074
5.16002e-06
0.00017866
5.34271e-06
0.00017825
5.53736e-06
0.000177848
5.74453e-06
0.000177457
5.96467e-06
0.00017708
6.19808e-06
0.000176722
6.44488e-06
0.000176389
6.70493e-06
0.000176088
6.97776e-06
0.000175824
7.26248e-06
0.000175606
7.55772e-06
0.000175443
7.86155e-06
0.000175345
8.17135e-06
0.00017532
8.48378e-06
0.000175378
8.79474e-06
0.000175528
9.09933e-06
0.000175777
9.39192e-06
0.000176132
9.66626e-06
0.000176594
9.91567e-06
0.000177163
1.01333e-05
0.000177832
1.03127e-05
0.000178592
1.04481e-05
1.05349e-05
0.000179428
0.000209734
6.18409e-08
0.00020972
1.57008e-07
0.000209696
2.99817e-07
0.000209658
5.10904e-07
0.0002096
7.97935e-07
0.000209515
1.14875e-06
0.000209398
1.53278e-06
0.000209247
1.91027e-06
0.000209061
2.24429e-06
0.000208843
2.51013e-06
0.0002086
2.69892e-06
0.000208336
2.8158e-06
0.000208058
2.8749e-06
0.000207772
2.89367e-06
0.000207482
2.88859e-06
0.00020719
2.87267e-06
0.000206898
2.85477e-06
0.000206608
2.84005e-06
0.000206319
2.83091e-06
0.000206031
2.82799e-06
0.000205744
2.83097e-06
0.000205456
2.83918e-06
0.000205169
2.85187e-06
0.00020488
2.86843e-06
0.00020459
2.88837e-06
0.000204298
2.91138e-06
0.000204004
2.93724e-06
0.000203707
2.96584e-06
0.000203407
2.99713e-06
0.000203104
3.03106e-06
0.000202798
3.06765e-06
0.000202488
3.1069e-06
0.000202174
3.14881e-06
0.000201856
3.19342e-06
0.000201534
3.24074e-06
0.000201209
3.2908e-06
0.000200878
3.34365e-06
0.000200544
3.39935e-06
0.000200205
3.45795e-06
0.000199861
3.51954e-06
0.000199513
3.58423e-06
0.000199161
3.65214e-06
0.000198804
3.72343e-06
0.000198442
3.79826e-06
0.000198076
3.87685e-06
0.000197705
3.95942e-06
0.00019733
4.04622e-06
0.000196951
4.13755e-06
0.000196568
4.23371e-06
0.000196182
4.33505e-06
0.000195792
4.44193e-06
0.000195399
4.55473e-06
0.000195005
4.67387e-06
0.000194608
4.79977e-06
0.000194212
4.93285e-06
0.000193816
5.07354e-06
0.000193421
5.22226e-06
0.000193031
5.37941e-06
0.000192645
5.54535e-06
0.000192268
5.72038e-06
0.0001919
5.90471e-06
0.000191546
6.09845e-06
0.00019121
6.30156e-06
0.000190894
6.51384e-06
0.000190604
6.73484e-06
0.000190345
6.96385e-06
0.000190123
7.19988e-06
0.000189944
7.44154e-06
0.000189814
7.68706e-06
0.000189742
7.93424e-06
0.000189733
8.18041e-06
0.000189794
8.42245e-06
0.000189932
8.65679e-06
0.000190152
8.87948e-06
0.000190457
9.08626e-06
0.000190851
9.27271e-06
0.000191332
9.43441e-06
0.000191898
9.56714e-06
0.000192544
9.66714e-06
0.000193261
9.73136e-06
9.75773e-06
0.000194038
0.000224425
6.78455e-08
0.000224411
1.70767e-07
0.000224387
3.23488e-07
0.00022435
5.48382e-07
0.000224293
8.54689e-07
0.000224211
1.23097e-06
0.000224097
1.646e-06
0.00022395
2.05801e-06
0.000223767
2.42721e-06
0.000223551
2.72592e-06
0.000223307
2.94293e-06
0.000223041
3.08204e-06
0.000222759
3.1571e-06
0.000222466
3.18618e-06
0.000222168
3.18681e-06
0.000221867
3.1733e-06
0.000221566
3.1557e-06
0.000221266
3.14017e-06
0.000220967
3.12983e-06
0.000220669
3.12581e-06
0.000220372
3.12807e-06
0.000220075
3.13607e-06
0.000219778
3.14912e-06
0.00021948
3.16657e-06
0.000219181
3.18791e-06
0.000218879
3.21275e-06
0.000218576
3.24084e-06
0.000218269
3.272e-06
0.00021796
3.30613e-06
0.000217648
3.34316e-06
0.000217333
3.38304e-06
0.000217014
3.42575e-06
0.000216692
3.47127e-06
0.000216365
3.5196e-06
0.000216035
3.57072e-06
0.000215702
3.62467e-06
0.000215364
3.68144e-06
0.000215022
3.74107e-06
0.000214676
3.80361e-06
0.000214327
3.86912e-06
0.000213973
3.93768e-06
0.000213616
4.00939e-06
0.000213255
4.08436e-06
0.000212891
4.16274e-06
0.000212523
4.24469e-06
0.000212152
4.33039e-06
0.000211778
4.42004e-06
0.000211402
4.51386e-06
0.000211023
4.6121e-06
0.000210643
4.715e-06
0.000210263
4.82283e-06
0.000209881
4.93585e-06
0.000209501
5.05434e-06
0.000209122
5.17855e-06
0.000208746
5.30873e-06
0.000208375
5.4451e-06
0.000208009
5.58786e-06
0.000207651
5.73712e-06
0.000207304
5.89297e-06
0.000206969
6.05538e-06
0.000206649
6.22423e-06
0.000206348
6.39925e-06
0.00020607
6.58006e-06
0.000205818
6.76604e-06
0.000205596
6.9564e-06
0.00020541
7.15012e-06
0.000205264
7.34591e-06
0.000205163
7.54221e-06
0.000205113
7.73717e-06
0.000205119
7.92868e-06
0.000205185
8.11432e-06
0.000205316
8.29147e-06
0.000205515
8.45728e-06
0.000205786
8.60877e-06
0.000206129
8.74294e-06
0.000206545
8.85681e-06
0.000207032
8.94761e-06
0.000207586
9.01286e-06
0.000208203
9.0505e-06
0.000208875
9.05907e-06
9.03777e-06
0.000209595
0.000240145
7.40806e-08
0.00024013
1.84838e-07
0.000240107
3.47263e-07
0.00024007
5.85402e-07
0.000240014
9.10121e-07
0.000239934
1.31088e-06
0.000239824
1.75612e-06
0.00023968
2.20234e-06
0.0002395
2.60704e-06
0.000239286
2.93961e-06
0.000239043
3.18633e-06
0.000238776
3.34946e-06
0.00023849
3.44234e-06
0.000238193
3.4834e-06
0.000237889
3.49117e-06
0.000237581
3.48115e-06
0.000237272
3.46463e-06
0.000236963
3.44877e-06
0.000236656
3.4375e-06
0.000236349
3.43248e-06
0.000236043
3.43403e-06
0.000235737
3.44178e-06
0.000235431
3.45509e-06
0.000235125
3.47334e-06
0.000234817
3.49597e-06
0.000234507
3.52255e-06
0.000234195
3.55276e-06
0.000233881
3.58636e-06
0.000233563
3.6232e-06
0.000233243
3.66315e-06
0.00023292
3.70613e-06
0.000232594
3.75208e-06
0.000232264
3.80093e-06
0.000231931
3.85266e-06
0.000231595
3.90722e-06
0.000231255
3.96459e-06
0.000230912
4.02477e-06
0.000230565
4.08775e-06
0.000230215
4.15356e-06
0.000229862
4.22222e-06
0.000229506
4.29377e-06
0.000229147
4.36829e-06
0.000228785
4.44584e-06
0.000228422
4.52652e-06
0.000228056
4.61045e-06
0.000227689
4.69773e-06
0.00022732
4.78851e-06
0.000226951
4.88294e-06
0.000226582
4.98115e-06
0.000226214
5.08331e-06
0.000225847
5.18955e-06
0.000225483
5.30001e-06
0.000225122
5.41483e-06
0.000224767
5.53409e-06
0.000224418
5.65787e-06
0.000224076
5.78618e-06
0.000223745
5.919e-06
0.000223426
6.05623e-06
0.000223121
6.19768e-06
0.000222834
6.3431e-06
0.000222566
6.49208e-06
0.000222321
6.64411e-06
0.000222103
6.79856e-06
0.000221914
6.95459e-06
0.000221759
7.11124e-06
0.000221642
7.26735e-06
0.000221566
7.42158e-06
0.000221536
7.57241e-06
0.000221555
7.71815e-06
0.000221627
7.85696e-06
0.000221754
7.98686e-06
0.00022194
8.10579e-06
0.000222186
8.21164e-06
0.000222492
8.30234e-06
0.000222859
8.37585e-06
0.000223286
8.43033e-06
0.000223769
8.46414e-06
0.000224306
8.47592e-06
0.000224892
8.4647e-06
0.000225521
8.42989e-06
8.37138e-06
0.000226187
0.000256966
8.05586e-08
0.000256951
1.99288e-07
0.000256927
3.71328e-07
0.00025689
6.22304e-07
0.000256836
9.64732e-07
0.000256757
1.38911e-06
0.00025665
1.86376e-06