/*--------------------------------*- C++ -*----------------------------------*\
| =========                 |                                                 |
| \\      /  F ield         | OpenFOAM: The Open Source CFD Toolbox           |
|  \\    /   O peration     | Version:  2106                                  |
|   \\  /    A nd           | Website:  www.openfoam.com                      |
|    \\/     M anipulation  |                                                 |
\*---------------------------------------------------------------------------*/
FoamFile
{
    version     2.0;
    format      ascii;
    arch        "LSB;label=32;scalar=64";
    class       surfaceScalarField;
    location    "1";
    object      phi;
}
// * * * * * * * * * * * * * * * * * * * * * * * * * * * * * * * * * * * * * //

dimensions      [1 0 -1 0 0 0 0];

oriented        oriented;

internalField   nonuniform List<scalar> 
23692
(
9.30948e-05
-1.52581e-08
9.31193e-05
-2.44024e-08
9.31463e-05
-2.68528e-08
9.31684e-05
-2.18157e-08
9.31787e-05
-1.00403e-08
9.31725e-05
6.50416e-09
9.3148e-05
2.48941e-08
9.31065e-05
4.20411e-08
9.30515e-05
5.55266e-08
9.29881e-05
6.41096e-08
9.29211e-05
6.77469e-08
9.28546e-05
6.72636e-08
9.27917e-05
6.38962e-08
9.27338e-05
5.88748e-08
9.26818e-05
5.31787e-08
9.26356e-05
4.74496e-08
9.2595e-05
4.2016e-08
9.25595e-05
3.69781e-08
9.25288e-05
3.22993e-08
9.25026e-05
2.78848e-08
9.24809e-05
2.36303e-08
9.24634e-05
1.94449e-08
9.24503e-05
1.52683e-08
9.24415e-05
1.10593e-08
9.24371e-05
6.80168e-09
9.24372e-05
2.48824e-09
9.24418e-05
-1.87015e-09
9.24508e-05
-6.26269e-09
9.24645e-05
-1.06755e-08
9.24827e-05
-1.50862e-08
9.25054e-05
-1.9483e-08
9.25326e-05
-2.38401e-08
9.25642e-05
-2.81357e-08
9.26002e-05
-3.2348e-08
9.26404e-05
-3.64518e-08
9.26847e-05
-4.04169e-08
9.27329e-05
-4.42149e-08
9.27848e-05
-4.78092e-08
9.28401e-05
-5.1166e-08
9.28987e-05
-5.42425e-08
9.29601e-05
-5.69969e-08
9.3024e-05
-5.93822e-08
9.30899e-05
-6.13451e-08
9.31574e-05
-6.28327e-08
9.32259e-05
-6.37845e-08
9.32949e-05
-6.41356e-08
9.33636e-05
-6.38168e-08
9.34313e-05
-6.27523e-08
9.34972e-05
-6.08589e-08
9.35603e-05
-5.80433e-08
9.36196e-05
-5.42065e-08
9.3674e-05
-4.92318e-08
9.37222e-05
-4.29926e-08
9.37628e-05
-3.53409e-08
9.37941e-05
-2.61093e-08
9.38145e-05
-1.51021e-08
9.38219e-05
-2.08877e-09
9.3814e-05
1.32001e-08
9.37883e-05
3.10901e-08
9.37416e-05
5.19691e-08
9.36706e-05
7.63108e-08
9.35713e-05
1.047e-07
9.34387e-05
1.3786e-07
9.32673e-05
1.76704e-07
9.30502e-05
2.22392e-07
9.27791e-05
2.76418e-07
9.24436e-05
3.4074e-07
9.20309e-05
4.17954e-07
9.15245e-05
5.1157e-07
9.09033e-05
6.26411e-07
9.01392e-05
7.69241e-07
8.91946e-05
9.49739e-07
8.80176e-05
1.18205e-06
8.65354e-05
1.48727e-06
8.46428e-05
1.89761e-06
8.21847e-05
2.46303e-06
7.89277e-05
3.26195e-06
7.45131e-05
4.41945e-06
6.83687e-05
6.14922e-06
5.95169e-05
8.85661e-06
1.36248e-05
4.58968e-05
9.96155e-05
-3.14107e-08
9.96418e-05
-5.05681e-08
9.96708e-05
-5.57625e-08
9.96947e-05
-4.54235e-08
9.97061e-05
-2.11245e-08
9.96999e-05
1.30657e-08
9.96741e-05
5.11199e-08
9.963e-05
8.66384e-08
9.95715e-05
1.14617e-07
9.95039e-05
1.32467e-07
9.94323e-05
1.40087e-07
9.93613e-05
1.39178e-07
9.92939e-05
1.32287e-07
9.92319e-05
1.21955e-07
9.91761e-05
1.10217e-07
9.91265e-05
9.83961e-08
9.90828e-05
8.71794e-08
9.90446e-05
7.6775e-08
9.90115e-05
6.71121e-08
9.89833e-05
5.79973e-08
9.89597e-05
4.92146e-08
9.89407e-05
4.05798e-08
9.89263e-05
3.19636e-08
9.89165e-05
2.32848e-08
9.89114e-05
1.45073e-08
9.8911e-05
5.62514e-09
9.89153e-05
-3.35041e-09
9.89245e-05
-1.23954e-08
9.89385e-05
-2.14737e-08
9.89572e-05
-3.05524e-08
9.89808e-05
-3.95901e-08
9.90091e-05
-4.85466e-08
9.90421e-05
-5.73761e-08
9.90796e-05
-6.60273e-08
9.91217e-05
-7.44485e-08
9.9168e-05
-8.25832e-08
9.92184e-05
-9.03668e-08
9.92727e-05
-9.77308e-08
9.93306e-05
-1.04597e-07
9.93918e-05
-1.10886e-07
9.94561e-05
-1.16504e-07
9.95229e-05
-1.21356e-07
9.95918e-05
-1.25337e-07
9.96622e-05
-1.28332e-07
9.97338e-05
-1.30219e-07
9.98057e-05
-1.30865e-07
9.98772e-05
-1.30127e-07
9.99476e-05
-1.27849e-07
0.000100016
-1.2386e-07
0.000100081
-1.17971e-07
0.000100143
-1.09974e-07
0.000100198
-9.9635e-08
0.000100248
-8.66917e-08
0.000100289
-7.08448e-08
0.00010032
-5.17504e-08
0.00010034
-2.90104e-08
0.000100345
-2.15743e-09
0.000100335
2.9359e-08
0.000100306
6.61917e-08
0.000100254
1.09126e-07
0.000100177
1.59115e-07
0.00010007
2.1733e-07
9.99284e-05
2.85217e-07
9.97462e-05
3.64589e-07
9.95165e-05
4.57739e-07
9.9231e-05
5.67603e-07
9.88793e-05
6.97992e-07
9.8449e-05
8.53918e-07
9.7924e-05
1.04207e-06
9.72845e-05
1.27152e-06
9.65045e-05
1.55477e-06
9.55504e-05
1.9093e-06
9.43779e-05
2.35995e-06
9.29281e-05
2.94247e-06
9.11223e-05
3.70874e-06
8.88567e-05
4.73398e-06
8.59989e-05
6.125e-06
8.23972e-05
8.02634e-06
7.79312e-05
1.06205e-05
7.27343e-05
1.40586e-05
1.79303e-05
6.84338e-05
0.000106593
-4.84764e-08
0.000106621
-7.865e-08
0.000106652
-8.69075e-08
0.000106678
-7.1121e-08
0.000106691
-3.36633e-08
0.000106685
1.92099e-08
0.000106659
7.81754e-08
0.000106613
1.33337e-07
0.000106551
1.76908e-07
0.000106479
2.04855e-07
0.000106403
2.16964e-07
0.000106328
2.15839e-07
0.000106256
2.0539e-07
0.000106189
1.89558e-07
0.000106129
1.71488e-07
0.000106076
1.53249e-07
0.000106029
1.35909e-07
0.000105987
1.19809e-07
0.000105951
1.04853e-07
0.000105921
9.07444e-08
0.000105895
7.71594e-08
0.000105874
6.38127e-08
0.000105858
5.05033e-08
0.000105847
3.71113e-08
0.00010584
2.35761e-08
0.000105839
9.88581e-09
0.000105843
-3.93775e-09
0.000105851
-1.78558e-08
0.000105865
-3.18197e-08
0.000105884
-4.57731e-08
0.000105908
-5.96564e-08
0.000105936
-7.34027e-08
0.00010597
-8.69419e-08
0.000106008
-1.00199e-07
0.000106051
-1.13092e-07
0.000106099
-1.25533e-07
0.00010615
-1.37421e-07
0.000106206
-1.4865e-07
0.000106265
-1.59103e-07
0.000106328
-1.6865e-07
0.000106393
-1.77156e-07
0.000106462
-1.84468e-07
0.000106532
-1.90424e-07
0.000106604
-1.9485e-07
0.000106677
-1.97558e-07
0.00010675
-1.98341e-07
0.000106822
-1.96981e-07
0.000106893
-1.93237e-07
0.000106962
-1.86849e-07
0.000107027
-1.77527e-07
0.000107088
-1.64953e-07
0.000107143
-1.4877e-07
0.000107191
-1.28578e-07
0.00010723
-1.03921e-07
0.000107259
-7.42793e-08
0.000107275
-3.90488e-08
0.000107276
2.47652e-09
0.00010726
5.11212e-08
0.000107225
1.07862e-07
0.000107166
1.7387e-07
0.000107081
2.50561e-07
0.000106965
3.3966e-07
0.000106813
4.4329e-07
0.000106619
5.64087e-07
0.000106378
7.0536e-07
0.00010608
8.71299e-07
0.000105717
1.06728e-06
0.000105276
1.30025e-06
0.000104745
1.57935e-06
0.000104106
1.91668e-06
0.000103338
2.32846e-06
0.000102417
2.83664e-06
0.000101311
3.47108e-06
9.99871e-05
4.27248e-06
9.84058e-05
5.29574e-06
9.65325e-05
6.61292e-06
9.43509e-05
8.3123e-06
9.18969e-05
1.04858e-05
8.93355e-05
1.31874e-05
8.71032e-05
1.62963e-05
1.91295e-05
8.59095e-05
0.000114059
-6.65255e-08
0.000114089
-1.08749e-07
0.000114123
-1.2052e-07
0.000114151
-9.92919e-08
0.000114166
-4.81779e-08
0.000114162
2.42845e-08
0.000114135
1.05361e-07
0.000114087
1.81452e-07
0.000114023
2.41838e-07
0.000113948
2.80867e-07
0.000113868
2.9817e-07
0.000113787
2.97223e-07
0.00011371
2.83355e-07
0.000113639
2.61954e-07
0.000113575
2.37348e-07
0.000113517
2.12404e-07
0.000113466
1.88625e-07
0.000113421
1.66507e-07
0.000113382
1.4594e-07
0.000113349
1.26544e-07
0.00011332
1.07872e-07
0.000113297
8.955e-08
0.000113279
7.13022e-08
0.000113266
5.29608e-08
0.000113258
3.44459e-08
0.000113255
1.57426e-08
0.000113257
-3.12602e-09
0.000113265
-2.2105e-08
0.000113278
-4.11285e-08
0.000113296
-6.01203e-08
0.00011332
-7.8995e-08
0.000113348
-9.76663e-08
0.000113381
-1.16035e-07
0.00011342
-1.33998e-07
0.000113462
-1.51444e-07
0.00011351
-1.68248e-07
0.000113562
-1.84277e-07
0.000113617
-1.99384e-07
0.000113677
-2.13407e-07
0.00011374
-2.26171e-07
0.000113805
-2.37487e-07
0.000113874
-2.47149e-07
0.000113944
-2.54937e-07
0.000114015
-2.60611e-07
0.000114087
-2.63915e-07
0.000114159
-2.64571e-07
0.000114231
-2.6228e-07
0.0001143
-2.56716e-07
0.000114367
-2.47524e-07
0.00011443
-2.34316e-07
0.000114488
-2.1666e-07
0.00011454
-1.94077e-07
0.000114584
-1.66029e-07
0.000114618
-1.31908e-07
0.000114641
-9.10174e-08
0.000114651
-4.25548e-08
0.000114646
1.44118e-08
0.000114622
8.0966e-08
0.000114578
1.58384e-07
0.00011451
2.48191e-07
0.000114415
3.52216e-07
0.000114289
4.72669e-07
0.000114126
6.12246e-07
0.000113923
7.74259e-07
0.000113672
9.62809e-07
0.000113367
1.18302e-06
0.000112999
1.44134e-06
0.00011256
1.74597e-06
0.000112038
2.10738e-06
0.000111422
2.53904e-06
0.000110698
3.05837e-06
0.000109853
3.6879e-06
0.000108874
4.45662e-06
0.000107751
5.40132e-06
0.000106486
6.56716e-06
0.000105099
8.00599e-06
0.000103649
9.76852e-06
0.000102257
1.18836e-05
0.000101139
1.43119e-05
0.000100591
1.68501e-05
1.89721e-05
0.000100754
0.000122048
-8.56333e-08
0.00012208
-1.41001e-07
0.000122117
-1.56878e-07
0.000122148
-1.30392e-07
0.000122166
-6.53361e-08
0.000122163
2.74586e-08
0.000122137
1.31731e-07
0.000122089
2.30054e-07
0.000122023
3.08566e-07
0.000121945
3.59876e-07
0.000121861
3.83309e-07
0.000121776
3.83184e-07
0.000121694
3.66244e-07
0.000121618
3.39367e-07
0.000121549
3.08131e-07
0.000121487
2.76262e-07
0.000121432
2.4575e-07
0.000121383
2.1729e-07
0.00012134
1.9079e-07
0.000121303
1.65787e-07
0.000121272
1.41743e-07
0.000121246
1.18179e-07
0.000121225
9.47485e-08
0.00012121
7.12392e-08
0.0001212
4.75438e-08
0.000121195
2.36437e-08
0.000121196
-4.33391e-10
0.000121202
-2.46212e-08
0.000121214
-4.88336e-08
0.000121231
-7.29718e-08
0.000121253
-9.69327e-08
0.00012128
-1.20599e-07
0.000121313
-1.43847e-07
0.00012135
-1.66541e-07
0.000121392
-1.88541e-07
0.000121438
-2.09685e-07
0.000121489
-2.29803e-07
0.000121544
-2.48704e-07
0.000121602
-2.66183e-07
0.000121664
-2.82017e-07
0.000121728
-2.95962e-07
0.000121794
-3.07759e-07
0.000121862
-3.17123e-07
0.000121932
-3.23753e-07
0.000122001
-3.27322e-07
0.000122071
-3.27475e-07
0.000122139
-3.23837e-07
0.000122204
-3.15995e-07
0.000122267
-3.03503e-07
0.000122325
-2.8587e-07
0.000122378
-2.62557e-07
0.000122423
-2.32966e-07
0.000122461
-1.96426e-07
0.000122488
-1.52184e-07
0.000122503
-9.93807e-08
0.000122504
-3.70292e-08
0.00012249
3.6002e-08
0.000122457
1.21023e-07
0.000122402
2.19572e-07
0.000122324
3.33464e-07
0.000122218
4.64859e-07
0.000122082
6.1634e-07
0.00012191
7.91016e-07
0.000121698
9.92652e-07
0.000121442
1.22584e-06
0.000121136
1.49619e-06
0.000120774
1.81062e-06
0.000120349
2.17768e-06
0.000119855
2.60796e-06
0.000119286
3.11455e-06
0.000118638
3.71364e-06
0.000117908
4.42501e-06
0.000117098
5.27237e-06
0.000116223
6.28322e-06
0.00011531
7.48732e-06
0.00011441
8.91246e-06
0.00011361
1.0575e-05
0.000113038
1.24615e-05
0.00011286
1.44964e-05
0.000113221
1.64951e-05
1.81179e-05
0.000114082
0.000130597
-1.05879e-07
0.000130631
-1.75553e-07
0.000130671
-1.96294e-07
0.000130706
-1.64954e-07
0.000130727
-8.59223e-08
0.000130727
2.77088e-08
0.000130703
1.56121e-07
0.000130656
2.77941e-07
0.000130589
3.76017e-07
0.000130509
4.41003e-07
0.000130422
4.71788e-07
0.000130333
4.73413e-07
0.000130246
4.54001e-07
0.000130165
4.21945e-07
0.000130091
3.84119e-07
0.000130024
3.45184e-07
0.000129964
3.07684e-07
0.00012991
2.72566e-07
0.000129864
2.39797e-07
0.000129823
2.08868e-07
0.000129788
1.79145e-07
0.000129759
1.50066e-07
0.000129736
1.2121e-07
0.000129718
9.23195e-08
0.000129705
6.32649e-08
0.000129699
3.40113e-08
0.000129697
4.59581e-09
0.000129702
-2.49047e-08
0.000129711
-5.43843e-08
0.000129726
-8.37284e-08
0.000129747
-1.12803e-07
0.000129772
-1.41467e-07
0.000129803
-1.69569e-07
0.000129838
-1.96944e-07
0.000129878
-2.23414e-07
0.000129923
-2.48784e-07
0.000129972
-2.72843e-07
0.000130024
-2.95357e-07
0.00013008
-3.16076e-07
0.000130138
-3.34725e-07
0.0001302
-3.5101e-07
0.000130263
-3.64611e-07
0.000130327
-3.75186e-07
0.000130392
-3.82366e-07
0.000130458
-3.85755e-07
0.000130522
-3.84929e-07
0.000130584
-3.79429e-07
0.000130644
-3.68764e-07
0.0001307
-3.52394e-07
0.000130751
-3.29736e-07
0.000130796
-3.00148e-07
0.000130833
-2.62921e-07
0.000130861
-2.17266e-07
0.000130878
-1.62298e-07
0.000130883
-9.70163e-08
0.000130874
-2.02803e-08
0.000130848
6.92036e-08
0.000130804
1.72923e-07
0.000130738
2.92609e-07
0.000130649
4.30288e-07
0.000130533
5.88334e-07
0.000130387
7.69544e-07
0.000130208
9.77237e-07
0.000129993
1.21536e-06
0.000129738
1.4886e-06
0.000129439
1.8026e-06
0.000129093
2.16406e-06
0.000128697
2.58102e-06
0.000128249
3.06303e-06
0.000127749
3.62135e-06
0.000127201
4.26913e-06
0.000126612
5.0213e-06
0.000125997
5.89423e-06
0.000125383
6.90455e-06
0.00012481
8.06689e-06
0.00012434
9.38939e-06
0.000124056
1.0866e-05
0.000124061
1.24641e-05
0.000124456
1.41079e-05
0.000125297
1.56606e-05
1.692e-05
0.000126502
0.000139744
-1.2733e-07
0.000139781
-2.12568e-07
0.000139824
-2.39109e-07
0.000139863
-2.03568e-07
0.000139889
-1.10823e-07
0.000139893
2.38692e-08
0.000139872
1.77168e-07
0.000139827
3.23697e-07
0.000139761
4.42857e-07
0.00013968
5.23149e-07
0.00013959
5.62796e-07
0.000139498
5.67419e-07
0.000139407
5.46428e-07
0.00013932
5.0972e-07
0.000139241
4.65517e-07
0.000139168
4.19479e-07
0.000139103
3.74783e-07
0.000139045
3.32712e-07
0.000138994
2.93336e-07
0.000138949
2.5614e-07
0.000138911
2.20423e-07
0.000138879
1.85546e-07
0.000138852
1.51026e-07
0.000138831
1.16553e-07
0.000138816
8.19717e-08
0.000138807
4.72382e-08
0.000138803
1.23911e-08
0.000138805
-2.24822e-08
0.000138812
-5.72615e-08
0.000138825
-9.18038e-08
0.000138843
-1.25958e-07
0.000138866
-1.59554e-07
0.000138894
-1.92409e-07
0.000138927
-2.24326e-07
0.000138964
-2.55095e-07
0.000139005
-2.84483e-07
0.000139051
-3.12235e-07
0.0001391
-3.38078e-07
0.000139151
-3.61712e-07
0.000139206
-3.82815e-07
0.000139263
-4.01038e-07
0.000139321
-4.16005e-07
0.00013938
-4.27314e-07
0.000139439
-4.34532e-07
0.000139497
-4.37198e-07
0.000139555
-4.34817e-07
0.000139609
-4.26858e-07
0.000139661
-4.12748e-07
0.000139708
-3.9187e-07
0.000139749
-3.63554e-07
0.000139784
-3.27065e-07
0.00013981
-2.816e-07
0.000139827
-2.26271e-07
0.000139832
-1.60085e-07
0.000139825
-8.19326e-08
0.000139803
9.43646e-09
0.000139765
1.15426e-07
0.000139708
2.37638e-07
0.000139631
3.77916e-07
0.000139531
5.38378e-07
0.000139406
7.21472e-07
0.000139253
9.30034e-07
0.000139071
1.16735e-06
0.000138857
1.43725e-06
0.00013861
1.74416e-06
0.000138327
2.09323e-06
0.000138008
2.49039e-06
0.000137655
2.94242e-06
0.000137269
3.45698e-06
0.000136855
4.04261e-06
0.000136424
4.70848e-06
0.000135989
5.46405e-06
0.000135572
6.31823e-06
0.000135206
7.27812e-06
0.000134934
8.34673e-06
0.000134811
9.51961e-06
0.000134905
1.07799e-05
0.000135284
1.20918e-05
0.000136006
1.33939e-05
0.000137079
1.45948e-05
1.55795e-05
0.000138426
0.000149532
-1.50061e-07
0.000149572
-2.52198e-07
0.000149619
-2.8566e-07
0.000149662
-2.46831e-07
0.000149693
-1.4096e-07
0.000149703
1.46916e-08
0.000149687
1.93382e-07
0.000149646
3.65733e-07
0.000149582
5.07565e-07
0.000149501
6.04993e-07
0.00014941
6.55323e-07
0.000149314
6.64528e-07
0.000149219
6.43171e-07
0.000149128
6.02607e-07
0.000149043
5.52428e-07
0.000148965
4.99374e-07
0.000148894
4.47354e-07
0.000148831
3.98055e-07
0.000148776
3.5174e-07
0.000148727
3.07931e-07
0.000148684
2.65895e-07
0.000148648
2.24936e-07
0.000148618
1.84511e-07
0.000148594
1.44265e-07
0.000148576
1.04014e-07
0.000148563
6.3704e-08
0.000148556
2.33701e-08
0.000148555
-1.68897e-08
0.00014856
-5.69398e-08
0.00014857
-9.66203e-08
0.000148584
-1.3575e-07
0.000148604
-1.74134e-07
0.000148629
-2.11561e-07
0.000148658
-2.478e-07
0.000148692
-2.82603e-07
0.000148729
-3.15702e-07
0.00014877
-3.46802e-07
0.000148814
-3.75585e-07
0.000148861
-4.01706e-07
0.00014891
-4.24793e-07
0.00014896
-4.44444e-07
0.000149012
-4.60232e-07
0.000149063
-4.71697e-07
0.000149115
-4.78347e-07
0.000149165
-4.79659e-07
0.000149213
-4.75073e-07
0.000149258
-4.63992e-07
0.000149299
-4.45776e-07
0.000149335
-4.19737e-07
0.000149364
-3.85132e-07
0.000149387
-3.41155e-07
0.0001494
-2.8693e-07
0.000149404
-2.21494e-07
0.000149396
-1.43783e-07
0.000149375
-5.26182e-08
0.000149339
5.33035e-08
0.000149288
1.75431e-07
0.000149219
3.15404e-07
0.00014913
4.75074e-07
0.00014902
6.56529e-07
0.000148888
8.62137e-07
0.000148732
1.09458e-06
0.000148551
1.35687e-06
0.000148345
1.65245e-06
0.000148112
1.98513e-06
0.000147855
2.3592e-06
0.000147574
2.77934e-06
0.000147274
3.25065e-06
0.000146961
3.77848e-06
0.000146644
4.36829e-06
0.000146335
5.02526e-06
0.000146054
5.75381e-06
0.000145823
6.55677e-06
0.000145675
7.43425e-06
0.000145648
8.38205e-06
0.000145786
9.38953e-06
0.000146137
1.04371e-05
0.000146743
1.14936e-05
0.00014763
1.25143e-05
0.000148791
1.34418e-05
1.42123e-05
0.000150166
0.000160006
-1.74124e-07
0.000160048
-2.94584e-07
0.000160099
-3.36262e-07
0.000160148
-2.95316e-07
0.000160185
-1.77238e-07
0.000160201
-1.05874e-09
0.000160192
2.03256e-07
0.000160156
4.02403e-07
0.000160096
5.68516e-07
0.000160017
6.85086e-07
0.000159926
7.48196e-07
0.000159828
7.63889e-07
0.000159729
7.437e-07
0.000159633
7.00349e-07
0.000159542
6.44815e-07
0.000159459
5.84989e-07
0.000159383
5.25602e-07
0.000159315
4.68861e-07
0.000159254
4.15297e-07
0.0001592
3.64536e-07
0.000159154
3.15861e-07
0.000159113
2.68536e-07
0.00015908
2.21974e-07
0.000159052
1.75783e-07
0.00015903
1.29748e-07
0.000159015
8.37978e-08
0.000159005
3.79656e-08
0.000159
-7.64399e-09
0.000159001
-5.28819e-08
0.000159007
-9.75684e-08
0.000159019
-1.41498e-07
0.000159035
-1.84451e-07
0.000159055
-2.26183e-07
0.00015908
-2.66433e-07
0.000159109
-3.04916e-07
0.000159141
-3.41326e-07
0.000159176
-3.75326e-07
0.000159214
-4.06559e-07
0.000159254
-4.34635e-07
0.000159296
-4.59134e-07
0.000159339
-4.7961e-07
0.000159382
-4.95581e-07
0.000159424
-5.06537e-07
0.000159466
-5.11933e-07
0.000159506
-5.11193e-07
0.000159543
-5.03701e-07
0.000159576
-4.88806e-07
0.000159604
-4.65812e-07
0.000159627
-4.33979e-07
0.000159643
-3.92511e-07
0.000159651
-3.40553e-07
0.00015965
-2.77182e-07
0.000159639
-2.01398e-07
0.000159616
-1.12106e-07
0.000159581
-8.1149e-09
0.000159531
1.11868e-07
0.000159467
2.49273e-07
0.000159385
4.05685e-07
0.000159287
5.82853e-07
0.00015917
7.8271e-07
0.000159034
1.00739e-06
0.000158878
1.25923e-06
0.000158703
1.5408e-06
0.00015851
1.85488e-06
0.0001583
2.20446e-06
0.000158075
2.5927e-06
0.000157841
3.02283e-06
0.000157602
3.49807e-06
0.000157368
4.02146e-06
0.00015715
4.59559e-06
0.000156962
5.22222e-06
0.000156823
5.90186e-06
0.000156755
6.63311e-06
0.000156786
7.41188e-06
0.000156946
8.23049e-06
0.000157268
9.0766e-06
0.000157781
9.93225e-06
0.00015851
1.07732e-05
0.000159463
1.1569e-05
0.000160629
1.22849e-05
1.28857e-05
0.000161963
0.000171213
-1.99566e-07
0.000171259
-3.39829e-07
0.000171314
-3.91168e-07
0.000171368
-3.49496e-07
0.000171412
-2.20425e-07
0.000171436
-2.44833e-08
0.000171435
2.05409e-07
0.000171406
4.32142e-07
0.000171351
6.24109e-07
0.000171276
7.61924e-07
0.000171185
8.40127e-07
0.000171086
8.64505e-07
0.000170984
8.4731e-07
0.000170884
8.02523e-07
0.000170788
7.42484e-07
0.000170699
6.76298e-07
0.000170618
6.09629e-07
0.000170544
5.45308e-07
0.000170478
4.84235e-07
0.000170419
4.26219e-07
0.000170368
3.70603e-07
0.000170324
3.16651e-07
0.000170286
2.63748e-07
0.000170254
2.11467e-07
0.000170229
1.59565e-07
0.000170209
1.07956e-07
0.000170195
5.66667e-08
0.000170187
5.80198e-09
0.000170184
-4.44747e-08
0.000170186
-9.39651e-08
0.000170193
-1.42446e-07
0.000170204
-1.89664e-07
0.00017022
-2.35351e-07
0.000170239
-2.7921e-07
0.000170262
-3.20923e-07
0.000170288
-3.60145e-07
0.000170316
-3.96507e-07
0.000170347
-4.29605e-07
0.000170379
-4.59012e-07
0.000170412
-4.84265e-07
0.000170445
-5.04874e-07
0.000170478
-5.20314e-07
0.00017051
-5.3003e-07
0.00017054
-5.33435e-07
0.000170567
-5.29908e-07
0.000170591
-5.18794e-07
0.000170611
-4.994e-07
0.000170625
-4.70995e-07
0.000170633
-4.32803e-07
0.000170634
-3.84001e-07
0.000170626
-3.23718e-07
0.000170609
-2.51017e-07
0.000170582
-1.64901e-07
0.000170544
-6.42942e-08
0.000170494
5.19451e-08
0.00017043
1.8504e-07
0.000170353
3.36325e-07
0.000170261
5.07239e-07
0.000170154
6.99326e-07
0.000170033
9.14243e-07
0.000169896
1.15376e-06
0.000169745
1.41974e-06
0.000169582
1.71414e-06
0.000169407
2.03897e-06
0.000169225
2.39624e-06
0.00016904
2.7879e-06
0.000168856
3.21573e-06
0.000168683
3.68119e-06
0.000168529
4.18529e-06
0.000168406
4.72828e-06
0.000168328
5.30941e-06
0.000168312
5.92661e-06
0.000168379
6.57603e-06
0.000168548
7.25168e-06
0.000168843
7.94495e-06
0.000169285
8.64434e-06
0.000169891
9.33522e-06
0.000170673
9.99998e-06
0.000171632
1.06187e-05
0.000172755
1.11708e-05
1.16369e-05
0.000174012
0.000183205
-2.26411e-07
0.000183254
-3.87986e-07
0.000183313
-4.50522e-07
0.000183374
-4.09686e-07
0.000183425
-2.71072e-07
0.000183458
-5.64131e-08
0.000183465
1.98728e-07
0.000183445
4.53629e-07
0.000183397
6.7291e-07
0.000183326
8.34098e-07
0.000183238
9.29823e-07
0.000183139
9.65275e-07
0.000183035
9.53156e-07
0.000182931
9.08526e-07
0.00018283
8.45059e-07
0.000182736
7.73123e-07
0.000182649
6.99407e-07
0.000182569
6.27484e-07
0.000182498
5.58729e-07
0.000182435
4.93217e-07
0.000182378
4.30411e-07
0.000182329
3.69616e-07
0.000182287
3.10209e-07
0.000182251
2.5174e-07
0.000182221
1.93943e-07
0.000182198
1.36711e-07
0.000182179
8.00627e-08
0.000182167
2.41077e-08
0.000182159
-3.09853e-08
0.000182156
-8.50007e-08
0.000182157
-1.37696e-07
0.000182163
-1.88794e-07
0.000182173
-2.37994e-07
0.000182185
-2.84971e-07
0.000182201
-3.29374e-07
0.000182219
-3.70824e-07
0.000182239
-4.08914e-07
0.000182261
-4.43209e-07
0.000182283
-4.73242e-07
0.000182306
-4.98515e-07
0.000182328
-5.18503e-07
0.000182349
-5.32645e-07
0.000182369
-5.40353e-07
0.000182385
-5.4101e-07
0.000182399
-5.33965e-07
0.000182408
-5.18536e-07
0.000182412
-4.94011e-07
0.00018241
-4.59643e-07
0.000182402
-4.1465e-07
0.000182386
-3.58211e-07
0.000182362
-2.89467e-07
0.000182328
-2.07512e-07
0.000182285
-1.11393e-07
0.000182231
-1.12053e-10
0.000182166
1.27365e-07
0.000182089
2.7214e-07
0.000182
4.3537e-07
0.0001819
6.18265e-07
0.000181787
8.22078e-07
0.000181664
1.0481e-06
0.00018153
1.29764e-06
0.000181388
1.572e-06
0.000181241
1.87247e-06
0.00018109
2.20021e-06
0.00018094
2.55627e-06
0.000180797
2.94146e-06
0.000180667
3.35625e-06
0.000180557
3.80067e-06
0.000180479
4.27414e-06
0.000180442
4.77528e-06
0.00018046
5.30178e-06
0.000180546
5.85014e-06
0.000180717
6.41551e-06
0.000180987
6.99151e-06
0.000181372
7.57017e-06
0.000181884
8.14185e-06
0.000182533
8.69546e-06
0.000183324
9.21878e-06
0.000184253
9.69914e-06
0.000185309
1.01243e-05
1.0484e-05
0.000186471
0.000196037
-2.54651e-07
0.000196089
-4.39047e-07
0.000196153
-5.1435e-07
0.00019622
-4.7599e-07
0.000196278
-3.29429e-07
0.00019632
-9.73023e-08
0.000196337
1.82523e-07
0.000196326
4.65937e-07
0.000196286
7.13813e-07
0.000196221
9.00395e-07
0.000196136
1.01608e-06
0.000196038
1.0651e-06
0.000195933
1.06029e-06
0.000195826
1.01762e-06
0.000195722
9.52013e-07
0.000195622
8.75133e-07
0.00019553
7.94786e-07
0.000195445
7.15392e-07
0.000195368
6.38906e-07
0.000195299
5.65758e-07
0.000195238
4.95602e-07
0.000195184
4.27823e-07
0.000195136
3.61822e-07
0.000195096
2.97136e-07
0.000195061
2.33482e-07
0.000195032
1.70736e-07
0.000195009
1.08909e-07
0.000194991
4.81037e-08
0.000194978
-1.15014e-08
0.000194969
-6.96779e-08
0.000194964
-1.26161e-07
0.000194963
-1.80661e-07
0.000194965
-2.32844e-07
0.00019497
-2.82361e-07
0.000194977
-3.28824e-07
0.000194986
-3.7183e-07
0.000194996
-4.1094e-07
0.000195007
-4.45689e-07
0.000195018
-4.7558e-07
0.000195029
-5.00088e-07
0.000195038
-5.18661e-07
0.000195046
-5.30717e-07
0.00019505
-5.35647e-07
0.000195052
-5.32814e-07
0.000195049
-5.2156e-07
0.000195042
-5.01195e-07
0.000195029
-4.7101e-07
0.00019501
-4.30269e-07
0.000194984
-3.78208e-07
0.00019495
-3.14044e-07
0.000194909
-2.36966e-07
0.000194858
-1.46138e-07
0.000194798
-4.07026e-08
0.000194729
8.02075e-08
0.00019465
2.17478e-07
0.000194561
3.72026e-07
0.000194462
5.4477e-07
0.000194355
7.36628e-07
0.00019424
9.485e-07
0.000194118
1.18125e-06
0.000193991
1.4357e-06
0.000193861
1.71255e-06
0.000193733
2.01241e-06
0.000193608
2.33566e-06
0.000193493
2.68249e-06
0.000193393
3.05274e-06
0.000193314
3.44585e-06
0.000193265
3.8608e-06
0.000193254
4.29595e-06
0.000193291
4.74897e-06
0.000193387
5.21676e-06
0.000193553
5.69532e-06
0.000193799
6.17975e-06
0.000194137
6.6642e-06
0.000194576
7.14194e-06
0.000195123
7.60546e-06
0.000195782
8.04676e-06
0.000196554
8.45759e-06
0.000197433
8.83e-06
0.00019841
9.15688e-06
9.43275e-06
0.000199472
0.000209768
-2.84252e-07
0.000209822
-4.92923e-07
0.000209891
-5.82528e-07
0.000209963
-5.48269e-07
0.00021003
-3.95391e-07
0.000210081
-1.47157e-07
0.000210107
1.56604e-07
0.000210106
4.68641e-07
0.000210075
7.46154e-07
0.000210017
9.59956e-07
0.000209936
1.09793e-06
0.00020984
1.16297e-06
0.000209735
1.16776e-06
0.000209626
1.12898e-06
0.000209518
1.0627e-06
0.000209414
9.81882e-07
0.000209316
8.95513e-07
0.000209226
8.08962e-07
0.000209143
7.24861e-07
0.000209069
6.44082e-07
0.000209002
5.6654e-07
0.000208943
4.91753e-07
0.00020889
4.19166e-07
0.000208844
3.48332e-07
0.000208804
2.78953e-07
0.000208769
2.10896e-07
0.00020874
1.44157e-07
0.000208715
7.88396e-08
0.000208695
1.51208e-08
0.000208679
-4.67602e-08
0.000208667
-1.06507e-07
0.000208657
-1.63843e-07
0.00020865
-2.18385e-07
0.000208646
-2.69774e-07
0.000208643
-3.17589e-07
0.000208641
-3.61405e-07
0.00020864
-4.00758e-07
0.000208638
-4.35164e-07
0.000208636
-4.64105e-07
0.000208632
-4.87038e-07
0.000208627
-5.03395e-07
0.000208619
-5.12589e-07
0.000208607
-5.14002e-07
0.000208592
-5.07002e-07
0.000208572
-4.90936e-07
0.000208546
-4.65136e-07
0.000208515
-4.28913e-07
0.000208477
-3.81574e-07
0.000208433
-3.22404e-07
0.00020838
-2.50687e-07
0.000208321
-1.65708e-07
0.000208253
-6.67284e-08
0.000208176
4.6959e-08
0.000208092
1.76056e-07
0.000208
3.21265e-07
0.000207901
4.83262e-07
0.000207794
6.62687e-07
0.000207683
8.60126e-07
0.000207567
1.0761e-06
0.000207449
1.31104e-06
0.000207331
1.56526e-06
0.000207217
1.83892e-06
0.000207109
2.132e-06
0.000207013
2.44423e-06
0.000206932
2.77509e-06
0.000206873
3.1237e-06
0.000206842
3.4888e-06
0.000206845
3.86868e-06
0.000206892
4.26115e-06
0.000206989
4.66347e-06
0.000207145
5.07234e-06
0.000207368
5.48386e-06
0.000207666
5.89362e-06
0.000208044
6.29669e-06
0.00020851
6.68774e-06
0.000209065
7.06121e-06
0.000209712
7.41148e-06
0.000210447
7.73314e-06
0.000211267
8.02126e-06
0.000212163
8.27176e-06
8.48181e-06
0.000213125
0.00022446
-3.15147e-07
0.000224517
-5.49459e-07
0.00022459
-6.54787e-07
0.000224668
-6.26149e-07
0.000224742
-4.68506e-07
0.000224801
-2.05525e-07
0.000224837
1.21309e-07
0.000224845
4.61873e-07
0.000224823
7.69787e-07
0.000224772
1.01235e-06
0.000224697
1.17467e-06
0.000224604
1.25805e-06
0.000224499
1.2747e-06
0.000224389
1.24178e-06
0.000224278
1.17642e-06
0.00022417
1.09286e-06
0.000224067
1.00128e-06
0.000223972
9.08093e-07
0.000223884
8.16691e-07
0.000223803
7.28471e-07
0.000223731
6.43674e-07
0.000223665
5.61995e-07
0.000223606
4.8297e-07
0.000223554
4.06177e-07
0.000223507
3.31326e-07
0.000223466
2.58271e-07
0.000223429
1.87001e-07
0.000223397
1.17613e-07
0.000223369
5.02875e-08
0.000223344
-1.47309e-08
0.000223322
-7.7146e-08
0.000223303
-1.36639e-07
0.000223285
-1.92834e-07
0.00022327
-2.45337e-07
0.000223254
-2.93726e-07
0.00022324
-3.37548e-07
0.000223225
-3.76324e-07
0.000223209
-4.09559e-07
0.000223191
-4.36724e-07
0.000223171
-4.57276e-07
0.000223149
-4.70644e-07
0.000223123
-4.76248e-07
0.000223094
-4.73484e-07
0.000223059
-4.61742e-07
0.00022302
-4.40399e-07
0.000222975
-4.08825e-07
0.000222924
-3.6639e-07
0.000222867
-3.1246e-07
0.000222803
-2.46409e-07
0.000222731
-1.67592e-07
0.000222653
-7.54759e-08
0.000222568
3.05805e-08
0.000222476
1.51093e-07
0.000222378
2.86583e-07
0.000222274
4.37521e-07
0.000222166
6.04319e-07
0.000222054
7.87317e-07
0.00022194
9.86768e-07
0.000221826
1.20281e-06
0.000221714
1.43548e-06
0.000221607
1.68462e-06
0.000221509
1.94992e-06
0.000221423
2.23086e-06
0.000221353
2.52668e-06
0.000221304
2.83634e-06
0.000221282
3.15849e-06
0.000221292
3.49147e-06
0.00022134
3.83325e-06
0.000221432
4.18145e-06
0.000221575
4.5333e-06
0.000221774
4.88567e-06
0.000222035
5.23514e-06
0.000222363
5.57798e-06
0.000222761
5.91026e-06
0.000223233
6.22799e-06
0.000223779
6.52715e-06
0.000224399
6.80394e-06
0.000225089
7.05485e-06
0.000225845
7.27687e-06
0.00022666
7.4677e-06
7.62599e-06
0.000227528
0.000240182
-3.47241e-07
0.000240241
-6.08415e-07
0.000240317
-7.30728e-07
0.000240401
-7.09044e-07
0.000240481
-5.4802e-07
0.000240548
-2.71563e-07
0.000240593
7.74595e-08
0.000240609
4.46281e-07
0.000240596
7.85076e-07
0.000240552
1.0576e-06
0.000240482
1.24603e-06
0.000240393
1.3498e-06
0.000240289
1.38042e-06
0.000240178
1.35532e-06
0.000240065
1.29255e-06
0.000239953
1.20757e-06
0.000239846
1.1118e-06
0.000239745
1.01271e-06
0.000239652
9.14539e-07
0.000239565
8.19276e-07
0.000239486
7.27546e-07
0.000239414
6.39275e-07
0.000239348
5.54119e-07
0.000239288
4.71711e-07
0.000239234
3.91777e-07
0.000239184
3.1417e-07
0.000239139
2.38874e-07
0.000239097
1.65978e-07
0.000239059
9.5662e-08
0.000239024
2.81733e-08
0.000238991
-3.61878e-08
0.00023896
-9.70848e-08
0.00023893
-1.54139e-07
0.000238901
-2.0694e-07
0.000238872
-2.55061e-07
0.000238842
-2.98041e-07
0.000238811
-3.35392e-07
0.000238778
-3.66624e-07
0.000238743
-3.91206e-07
0.000238705
-4.08609e-07
0.000238664
-4.1828e-07
0.000238618
-4.19659e-07
0.000238569
-4.12179e-07
0.000238514
-3.95267e-07
0.000238454
-3.68353e-07
0.000238388
-3.30883e-07
0.000238316
-2.8229e-07
0.000238238
-2.22037e-07
0.000238154
-1.49607e-07
0.000238064
-6.45073e-08
0.000237967
3.36964e-08
0.000237866
1.45422e-07
0.000237759
2.71029e-07
0.000237648
4.10817e-07
0.000237533
5.65015e-07
0.000237417
7.33766e-07
0.000237301
9.17118e-07
0.000237186
1.115e-06
0.000237075
1.32723e-06
0.000236971
1.55346e-06
0.000236876
1.79318e-06
0.000236793
2.04572e-06
0.000236728
2.31018e-06
0.000236682
2.58546e-06
0.000236662
2.87022e-06
0.000236671
3.16289e-06
0.000236714
3.46162e-06
0.000236796
3.76435e-06