/*--------------------------------*- C++ -*----------------------------------*\
| =========                 |                                                 |
| \\      /  F ield         | OpenFOAM: The Open Source CFD Toolbox           |
|  \\    /   O peration     | Version:  2106                                  |
|   \\  /    A nd           | Website:  www.openfoam.com                      |
|    \\/     M anipulation  |                                                 |
\*---------------------------------------------------------------------------*/
FoamFile
{
    version     2.0;
    format      ascii;
    arch        "LSB;label=32;scalar=64";
    class       volScalarField;
    location    "1";
    object      T;
}
// * * * * * * * * * * * * * * * * * * * * * * * * * * * * * * * * * * * * * //

dimensions      [0 0 0 1 0 0 0];

internalField   nonuniform List<scalar> 
12013
(
300
300.001
300.001
300.002
300.002
300.003
300.004
300.005
300.006
300.007
300.009
300.01
300.012
300.014
300.016
300.019
300.022
300.025
300.028
300.032
300.037
300.042
300.047
300.052
300.059
300.065
300.073
300.081
300.089
300.099
300.108
300.119
300.13
300.142
300.155
300.169
300.183
300.199
300.215
300.232
300.25
300.269
300.288
300.309
300.331
300.354
300.378
300.403
300.429
300.456
300.485
300.514
300.545
300.577
300.61
300.644
300.68
300.717
300.755
300.795
300.837
300.879
300.924
300.97
301.018
301.068
301.12
301.174
301.23
301.288
301.349
301.413
301.48
301.551
301.626
301.706
301.792
301.885
301.988
302.106
302.247
300
300.001
300.001
300.002
300.002
300.003
300.004
300.005
300.006
300.007
300.009
300.01
300.012
300.014
300.016
300.019
300.022
300.025
300.028
300.032
300.037
300.042
300.047
300.052
300.059
300.065
300.073
300.081
300.089
300.099
300.108
300.119
300.13
300.142
300.155
300.169
300.183
300.198
300.215
300.232
300.25
300.269
300.288
300.309
300.331
300.354
300.378
300.403
300.429
300.456
300.484
300.514
300.544
300.576
300.609
300.644
300.679
300.716
300.755
300.795
300.836
300.879
300.923
300.969
301.017
301.067
301.119
301.172
301.228
301.286
301.347
301.411
301.478
301.548
301.622
301.701
301.785
301.876
301.975
302.085
302.205
300
300.001
300.001
300.002
300.002
300.003
300.004
300.005
300.006
300.007
300.009
300.01
300.012
300.014
300.016
300.019
300.022
300.025
300.028
300.032
300.037
300.042
300.047
300.052
300.059
300.065
300.073
300.081
300.089
300.098
300.108
300.119
300.13
300.142
300.155
300.169
300.183
300.198
300.215
300.232
300.249
300.268
300.288
300.309
300.331
300.354
300.378
300.402
300.428
300.456
300.484
300.513
300.544
300.576
300.609
300.643
300.679
300.716
300.754
300.794
300.835
300.878
300.922
300.968
301.016
301.065
301.116
301.17
301.225
301.283
301.343
301.406
301.472
301.541
301.614
301.691
301.772
301.859
301.951
302.049
302.151
300
300.001
300.001
300.002
300.002
300.003
300.004
300.005
300.006
300.007
300.009
300.01
300.012
300.014
300.016
300.019
300.022
300.025
300.028
300.032
300.037
300.041
300.047
300.052
300.059
300.065
300.073
300.081
300.089
300.098
300.108
300.119
300.13
300.142
300.155
300.168
300.183
300.198
300.214
300.231
300.249
300.268
300.288
300.309
300.33
300.353
300.377
300.402
300.428
300.455
300.483
300.512
300.543
300.575
300.608
300.642
300.677
300.714
300.752
300.792
300.833
300.875
300.92
300.965
301.013
301.062
301.113
301.165
301.22
301.277
301.337
301.399
301.463
301.531
301.601
301.675
301.753
301.834
301.918
302.006
302.094
300
300.001
300.001
300.002
300.002
300.003
300.004
300.005
300.006
300.007
300.009
300.01
300.012
300.014
300.016
300.019
300.022
300.025
300.028
300.032
300.037
300.041
300.047
300.052
300.059
300.065
300.073
300.081
300.089
300.098
300.108
300.119
300.13
300.142
300.155
300.168
300.183
300.198
300.214
300.231
300.249
300.268
300.287
300.308
300.33
300.353
300.376
300.401
300.427
300.454
300.482
300.511
300.542
300.573
300.606
300.64
300.675
300.712
300.75
300.789
300.83
300.872
300.916
300.961
301.008
301.057
301.107
301.159
301.213
301.269
301.328
301.388
301.451
301.516
301.584
301.654
301.727
301.802
301.879
301.957
302.034
300
300.001
300.001
300.002
300.002
300.003
300.004
300.005
300.006
300.007
300.009
300.01
300.012
300.014
300.016
300.019
300.022
300.025
300.028
300.032
300.037
300.041
300.047
300.052
300.058
300.065
300.073
300.08
300.089
300.098
300.108
300.118
300.13
300.142
300.154
300.168
300.182
300.197
300.213
300.23
300.248
300.267
300.287
300.307
300.329
300.352
300.375
300.4
300.426
300.453
300.481
300.51
300.54
300.571
300.604
300.638
300.673
300.709
300.747
300.786
300.826
300.868
300.911
300.956
301.002
301.05
301.1
301.151
301.204
301.259
301.315
301.374
301.434
301.497
301.561
301.628
301.696
301.765
301.835
301.905
301.974
300
300.001
300.001
300.002
300.002
300.003
300.004
300.005
300.006
300.007
300.009
300.01
300.012
300.014
300.016
300.019
300.022
300.025
300.028
300.032
300.037
300.041
300.046
300.052
300.058
300.065
300.072
300.08
300.089
300.098
300.108
300.118
300.129
300.141
300.154
300.167
300.182
300.197
300.213
300.23
300.247
300.266
300.286
300.306
300.328
300.35
300.374
300.398
300.424
300.451
300.479
300.508
300.538
300.569
300.601
300.635
300.669
300.705
300.743
300.781
300.821
300.862
300.905
300.949
300.995
301.041
301.09
301.14
301.192
301.245
301.3
301.356
301.414
301.474
301.535
301.597
301.66
301.724
301.788
301.851
301.913
300
300.001
300.001
300.002
300.002
300.003
300.004
300.005
300.006
300.007
300.009
300.01
300.012
300.014
300.016
300.019
300.022
300.025
300.028
300.032
300.036
300.041
300.046
300.052
300.058
300.065
300.072
300.08
300.088
300.098
300.107
300.118
300.129
300.141
300.153
300.167
300.181
300.196
300.212
300.229
300.246
300.265
300.285
300.305
300.326
300.349
300.372
300.397
300.422
300.449
300.476
300.505
300.535
300.565
300.597
300.631
300.665
300.701
300.737
300.775
300.815
300.855
300.897
300.94
300.985
301.031
301.078
301.127
301.177
301.228
301.281
301.335
301.39
301.446
301.503
301.562
301.62
301.679
301.737
301.795
301.851
300
300.001
300.001
300.002
300.002
300.003
300.004
300.005
300.006
300.007
300.008
300.01
300.012
300.014
300.016
300.019
300.021
300.025
300.028
300.032
300.036
300.041
300.046
300.052
300.058
300.065
300.072
300.08
300.088
300.097
300.107
300.117
300.128
300.14
300.153
300.166
300.18
300.195
300.211
300.228
300.245
300.264
300.283
300.303
300.325
300.347
300.37
300.394
300.419
300.446
300.473
300.501
300.531
300.561
300.593
300.626
300.66
300.695
300.731
300.768
300.807
300.846
300.887
300.93
300.973
301.017
301.063
301.11
301.158
301.208
301.258
301.309
301.362
301.415
301.468
301.522
301.577
301.631
301.684
301.737
301.788
300
300.001
300.001
300.002
300.002
300.003
300.004
300.005
300.006
300.007
300.008
300.01
300.012
300.014
300.016
300.019
300.021
300.025
300.028
300.032
300.036
300.041
300.046
300.052
300.058
300.064
300.071
300.079
300.088
300.097
300.106
300.117
300.128
300.139
300.152
300.165
300.179
300.194
300.21
300.226
300.244
300.262
300.281
300.301
300.322
300.344
300.367
300.391
300.416
300.442
300.469
300.497
300.526
300.556
300.587
300.62
300.653
300.687
300.723
300.759
300.797
300.836
300.876
300.917
300.959
301.002
301.046
301.091
301.137
301.184
301.232
301.281
301.33
301.38
301.43
301.48
301.53
301.58
301.629
301.677
301.725
300
300.001
300.001
300.002
300.002
300.003
300.004
300.005
300.006
300.007
300.008
300.01
300.012
300.014
300.016
300.018
300.021
300.024
300.028
300.032
300.036
300.041
300.046
300.051
300.057
300.064
300.071
300.079
300.087
300.096
300.106
300.116
300.127
300.138
300.151
300.164
300.178
300.193
300.208
300.225
300.242
300.26
300.279
300.299
300.32
300.341
300.364
300.388
300.412
300.438
300.464
300.492
300.52
300.55
300.581
300.612
300.645
300.678
300.713
300.749
300.785
300.823
300.862
300.901
300.942
300.983
301.026
301.069
301.113
301.158
301.203
301.249
301.295
301.341
301.388
301.434
301.481
301.527
301.572
301.616
301.66
300
300.001
300.001
300.002
300.002
300.003
300.004
300.005
300.006
300.007
300.008
300.01
300.012
300.014
300.016
300.018
300.021
300.024
300.028
300.032
300.036
300.04
300.045
300.051
300.057
300.063
300.071
300.078
300.086
300.095
300.105
300.115
300.126
300.137
300.15
300.163
300.176
300.191
300.206
300.223
300.24
300.257
300.276
300.296
300.316
300.338
300.36
300.383
300.408
300.433
300.459
300.486
300.514
300.543
300.573
300.603
300.635
300.668
300.702
300.736
300.772
300.808
300.845
300.884
300.923
300.962
301.003
301.044
301.086
301.128
301.17
301.213
301.257
301.3
301.343
301.386
301.429
301.471
301.513
301.554
301.593
300
300.001
300.001
300.002
300.002
300.003
300.004
300.005
300.006
300.007
300.008
300.01
300.012
300.014
300.016
300.018
300.021
300.024
300.027
300.031
300.035
300.04
300.045
300.051
300.056
300.063
300.07
300.078
300.086
300.094
300.104
300.114
300.125
300.136
300.148
300.161
300.175
300.189
300.204
300.22
300.237
300.254
300.273
300.292
300.312
300.333
300.355
300.378
300.402
300.427
300.452
300.478
300.506
300.534
300.563
300.593
300.624
300.656
300.688
300.722
300.756
300.791
300.827
300.863
300.901
300.938
300.977
301.016
301.055
301.095
301.135
301.175
301.215
301.255
301.295
301.335
301.375
301.414
301.452
301.49
301.526
300
300.001
300.001
300.002
300.002
300.003
300.004
300.005
300.006
300.007
300.008
300.01
300.011
300.013
300.016
300.018
300.021
300.024
300.027
300.031
300.035
300.04
300.045
300.05
300.056
300.062
300.069
300.077
300.085
300.093
300.103
300.113
300.123
300.134
300.146
300.159
300.172
300.187
300.202
300.217
300.234
300.251
300.269
300.288
300.308
300.328
300.35
300.372
300.395
300.419
300.444
300.47
300.496
300.524
300.552
300.581
300.611
300.642
300.673
300.705
300.738
300.772
300.806
300.84
300.876
300.912
300.948
300.985
301.022
301.059
301.096
301.134
301.171
301.208
301.245
301.282
301.318
301.354
301.389
301.424
301.458
300
300.001
300.001
300.002
300.002
300.003
300.004
300.005
300.006
300.007
300.008
300.01
300.011
300.013
300.015
300.018
300.021
300.024
300.027
300.031
300.035
300.039
300.044
300.049
300.055
300.062
300.068
300.076
300.084
300.092
300.101
300.111
300.121
300.133
300.144
300.157
300.17
300.184
300.198
300.214
300.23
300.247
300.265
300.283
300.302
300.323
300.343
300.365
300.388
300.411
300.435
300.46
300.486
300.512
300.539
300.567
300.596
300.626
300.656
300.686
300.718
300.75
300.782
300.815
300.848
300.882
300.916
300.951
300.985
301.02
301.055
301.089
301.124
301.159
301.193
301.227
301.26
301.293
301.326
301.357
301.389
300
300.001
300.001
300.002
300.002
300.003
300.004
300.005
300.006
300.007
300.008
300.01
300.011
300.013
300.015
300.018
300.02
300.023
300.027
300.03
300.034
300.039
300.043
300.049
300.054
300.061
300.067
300.075
300.082
300.091
300.1
300.109
300.12
300.13
300.142
300.154
300.167
300.181
300.195
300.21
300.226
300.242
300.259
300.277
300.296
300.316
300.336
300.357
300.379
300.401
300.425
300.449
300.474
300.499
300.525
300.552
300.579
300.608
300.636
300.665
300.695
300.725
300.756
300.787
300.818
300.85
300.882
300.914
300.946
300.979
301.011
301.043
301.075
301.107
301.138
301.169
301.2
301.23
301.26
301.29
301.318
300
300.001
300.001
300.002
300.002
300.003
300.004
300.005
300.006
300.007
300.008
300.009
300.011
300.013
300.015
300.017
300.02
300.023
300.026
300.03
300.034
300.038
300.043
300.048
300.054
300.06
300.066
300.073
300.081
300.089
300.098
300.107
300.117
300.128
300.139
300.151
300.164
300.177
300.191
300.205
300.221
300.237
300.253
300.271
300.289
300.308
300.328
300.348
300.369
300.391
300.413
300.436
300.46
300.484
300.509
300.535
300.561
300.587
300.615
300.642
300.67
300.699
300.727
300.757
300.786
300.815
300.845
300.875
300.905
300.935
300.964
300.994
301.024
301.053
301.082
301.11
301.139
301.166
301.194
301.221
301.247
300
300.001
300.001
300.002
300.002
300.003
300.004
300.004
300.005
300.007
300.008
300.009
300.011
300.013
300.015
300.017
300.02
300.022
300.026
300.029
300.033
300.037
300.042
300.047
300.052
300.058
300.065
300.072
300.079
300.087
300.096
300.105
300.115
300.125
300.136
300.147
300.16
300.172
300.186
300.2
300.215
300.23
300.247
300.263
300.281
300.299
300.318
300.337
300.358
300.378
300.4
300.422
300.444
300.467
300.491
300.515
300.54
300.565
300.591
300.617
300.643
300.67
300.697
300.724
300.751
300.778
300.806
300.834
300.861
300.889
300.916
300.943
300.97
300.997
301.024
301.05
301.076
301.101
301.126
301.151
301.175
300
300.001
300.001
300.002
300.002
300.003
300.004
300.004
300.005
300.006
300.008
300.009
300.011
300.012
300.014
300.017
300.019
300.022
300.025
300.029
300.032
300.036
300.041
300.046
300.051
300.057
300.063
300.07
300.077
300.085
300.093
300.102
300.112
300.122
300.132
300.143
300.155
300.168
300.181
300.194
300.208
300.223
300.239
300.255
300.272
300.289
300.307
300.326
300.345
300.365
300.385
300.406
300.427
300.449
300.471
300.494
300.517
300.541
300.565
300.589
300.614
300.639
300.663
300.689
300.714
300.739
300.765
300.79
300.815
300.841
300.866
300.891
300.915
300.94
300.964
300.988
301.011
301.035
301.057
301.08
301.102
300
300.001
300.001
300.002
300.002
300.003
300.003
300.004
300.005
300.006
300.007
300.009
300.01
300.012
300.014
300.016
300.019
300.021
300.024
300.028
300.031
300.035
300.04
300.045
300.05
300.055
300.062
300.068
300.075
300.083
300.091
300.099
300.108
300.118
300.128
300.139
300.15
300.162
300.174
300.188
300.201
300.215
300.23
300.246
300.262
300.278
300.295
300.313
300.331
300.35
300.369
300.388
300.409
300.429
300.45
300.471
300.493
300.515
300.537
300.56
300.582
300.605
300.628
300.652
300.675
300.698
300.721
300.745
300.768
300.791
300.814
300.836
300.859
300.881
300.903
300.925
300.946
300.968
300.988
301.009
301.029
300
300.001
300.001
300.002
300.002
300.003
300.003
300.004
300.005
300.006
300.007
300.009
300.01
300.012
300.014
300.016
300.018
300.021
300.024
300.027
300.031
300.034
300.039
300.043
300.048
300.054
300.06
300.066
300.073
300.08
300.087
300.096
300.104
300.114
300.123
300.134
300.144
300.156
300.168
300.18
300.193
300.207
300.221
300.235
300.25
300.266
300.282
300.299
300.316
300.333
300.351
300.37
300.388
300.407
300.427
300.447
300.467
300.487
300.508
300.528
300.549
300.57
300.591
300.613
300.634
300.655
300.676
300.698
300.719
300.74
300.76
300.781
300.801
300.822
300.842
300.861
300.881
300.9
300.919
300.937
300.955
300
300.001
300.001
300.001
300.002
300.003
300.003
300.004
300.005
300.006
300.007
300.008
300.01
300.011
300.013
300.015
300.018
300.02
300.023
300.026
300.029
300.033
300.037
300.042
300.046
300.052
300.057
300.063
300.07
300.077
300.084
300.092
300.1
300.109
300.118
300.128
300.138
300.149
300.16
300.172
300.184
300.197
300.21
300.224
300.238
300.253
300.268
300.283
300.299
300.315
300.332
300.349
300.367
300.384
300.402
300.42
300.439
300.458
300.476
300.495
300.514
300.534
300.553
300.572
300.592
300.611
300.63
300.649
300.668
300.687
300.706
300.725
300.743
300.761
300.779
300.797
300.815
300.832
300.849
300.865
300.882
300
300.001
300.001
300.001
300.002
300.002
300.003
300.004
300.005
300.006
300.007
300.008
300.009
300.011
300.013
300.015
300.017
300.019
300.022
300.025
300.028
300.032
300.036
300.04
300.044
300.049
300.055
300.06
300.067
300.073
300.08
300.088
300.095
300.104
300.112
300.122
300.131
300.141
300.152
300.163
300.174
300.186
300.199
300.211
300.225
300.238
300.252
300.267
300.281
300.296
300.312
300.327
300.343
300.36
300.376
300.393
300.41
300.427
300.444
300.461
300.478
300.496
300.513
300.531
300.548
300.566
300.583
300.6
300.617
300.634
300.651
300.668
300.684
300.701
300.717
300.733
300.748
300.764
300.779
300.794
300.809
300
300.001
300.001
300.001
300.002
300.002
300.003
300.004
300.005
300.005
300.006
300.008
300.009
300.01
300.012
300.014
300.016
300.018
300.021
300.024
300.027
300.03
300.034
300.038
300.042
300.047
300.052
300.057
300.063
300.069
300.076
300.083
300.09
300.098
300.106
300.115
300.124
300.133
300.143
300.153
300.164
300.175
300.186
300.198
300.21
300.223
300.236
300.249
300.262
300.276
300.29
300.305
300.319
300.334
300.349
300.364
300.379
300.395
300.41
300.426
300.441
300.457
300.473
300.488
300.504
300.519
300.535
300.55
300.566
300.581
300.596
300.611
300.626
300.64
300.655
300.669
300.683
300.696
300.71
300.723
300.736
300
300.001
300.001
300.001
300.002
300.002
300.003
300.004
300.004
300.005
300.006
300.007
300.009
300.01
300.012
300.013
300.015
300.017
300.02
300.023
300.025
300.029
300.032
300.036
300.04
300.044
300.049
300.054
300.059
300.065
300.071
300.078
300.085
300.092
300.099
300.107
300.116
300.124
300.133
300.143
300.153
300.163
300.173
300.184
300.195
300.207
300.218
300.23
300.243
300.255
300.268
300.281
300.294
300.307
300.321
300.334
300.348
300.362
300.376
300.39
300.403
300.417
300.431
300.445
300.459
300.473
300.487
300.5
300.514
300.528
300.541
300.554
300.567
300.58
300.593
300.605
300.618
300.63
300.642
300.654
300.665
300
300
300.001
300.001
300.002
300.002
300.003
300.003
300.004
300.005
300.006
300.007
300.008
300.009
300.011
300.012
300.014
300.016
300.019
300.021
300.024
300.027
300.03
300.034
300.037
300.041
300.046
300.05
300.055
300.061
300.066
300.072
300.079
300.085
300.092
300.099
300.107
300.115
300.123
300.132
300.141
300.15
300.16
300.169
300.179
300.19
300.2
300.211
300.222
300.233
300.245
300.256
300.268
300.28
300.292
300.304
300.316
300.328
300.341
300.353
300.365
300.378
300.39
300.402
300.415
300.427
300.439
300.451
300.463
300.475
300.486
300.498
300.509
300.521
300.532
300.543
300.554
300.565
300.575
300.585
300.596
300
300
300.001
300.001
300.002
300.002
300.003
300.003
300.004
300.005
300.005
300.006
300.007
300.009
300.01
300.012
300.013
300.015
300.017
300.02
300.022
300.025
300.028
300.031
300.035
300.038
300.042
300.047
300.051
300.056
300.061
300.067
300.072
300.078
300.085
300.091
300.098
300.105
300.113
300.121
300.129
300.137
300.145
300.154
300.163
300.172
300.182
300.191
300.201
300.211
300.221
300.231
300.242
300.252
300.263
300.273
300.284
300.295
300.306
300.317
300.327
300.338
300.349
300.36
300.37
300.381
300.392
300.402
300.412
300.423
300.433
300.443
300.453
300.463
300.473
300.482
300.492
300.501
300.51
300.519
300.528
300
300
300.001
300.001
300.001
300.002
300.002
300.003
300.003
300.004
300.005
300.006
300.007
300.008
300.009
300.011
300.012
300.014
300.016
300.018
300.02
300.023
300.026
300.028
300.032
300.035
300.039
300.042
300.047
300.051
300.056
300.06
300.066
300.071
300.077
300.083
300.089
300.095
300.102
300.109
300.116
300.123
300.131
300.138
300.146
300.155
300.163
300.171
300.18
300.189
300.197
300.206
300.215
300.225
300.234
300.243
300.252
300.262
300.271
300.28
300.29
300.299
300.308
300.318
300.327
300.336
300.345
300.354
300.363
300.372
300.381
300.39
300.398
300.407
300.415
300.423
300.432
300.44
300.447
300.455
300.463
300
300
300.001
300.001
300.001
300.002
300.002
300.003
300.003
300.004
300.005
300.005
300.006
300.007
300.008
300.01
300.011
300.013
300.014
300.016
300.018
300.021
300.023
300.026
300.029
300.032
300.035
300.038
300.042
300.046
300.05
300.054
300.059
300.064
300.069
300.074
300.079
300.085
300.091
300.097
300.103
300.109
300.116
300.123
300.13
300.137
300.144
300.151
300.159
300.166
300.174
300.182
300.19
300.197
300.205
300.213
300.221
300.229
300.237
300.245
300.253
300.261
300.269
300.277
300.285
300.293
300.301
300.308
300.316
300.324
300.331
300.339
300.346
300.353
300.36
300.367
300.374
300.381
300.388
300.394
300.401
300
300
300.001
300.001
300.001
300.002
300.002
300.002
300.003
300.003
300.004
300.005
300.006
300.007
300.008
300.009
300.01
300.011
300.013
300.015
300.016
300.018
300.021
300.023
300.025
300.028
300.031
300.034
300.037
300.041
300.044
300.048
300.052
300.056
300.06
300.065
300.07
300.075
300.08
300.085
300.09
300.096
300.101
300.107
300.113
300.119
300.125
300.132
300.138
300.145
300.151
300.158
300.164
300.171
300.178
300.184
300.191
300.198
300.205
300.211
300.218
300.225
300.232
300.238
300.245
300.252
300.258
300.265
300.271
300.277
300.284
300.29
300.296
300.302
300.308
300.314
300.32
300.326
300.331
300.337
300.342
300
300
300.001
300.001
300.001
300.001
300.002
300.002
300.003
300.003
300.004
300.004
300.005
300.006
300.007
300.008
300.009
300.01
300.011
300.013
300.014
300.016
300.018
300.02
300.022
300.025
300.027
300.03
300.032
300.035
300.038
300.042
300.045
300.049
300.052
300.056
300.06
300.064
300.069
300.073
300.078
300.082
300.087
300.092
300.097
300.102
300.107
300.113
300.118
300.123
300.129
300.134
300.14
300.146
300.151
300.157
300.162
300.168
300.174
300.179
300.185
300.191
300.196
300.202
300.207
300.213
300.218
300.224
300.229
300.234
300.239
300.245
300.25
300.255
300.26
300.265
300.269
300.274
300.279
300.283
300.288
300
300
300
300.001
300.001
300.001
300.001
300.002
300.002
300.003
300.003
300.004
300.004
300.005
300.006
300.007
300.008
300.009
300.01
300.011
300.012
300.014
300.016
300.017
300.019
300.021
300.023
300.025
300.028
300.03
300.033
300.036
300.038
300.041
300.045
300.048
300.051
300.055
300.058
300.062
300.066
300.07
300.074
300.078
300.082
300.086
300.09
300.095
300.099
300.104
300.108
300.113
300.117
300.122
300.126
300.131
300.136
300.14
300.145
300.149
300.154
300.159
300.163
300.168
300.172
300.177
300.181
300.186
300.19
300.194
300.198
300.203
300.207
300.211
300.215
300.219
300.223
300.227
300.231
300.234
300.238
300
300
300
300.001
300.001
300.001
300.001
300.002
300.002
300.002
300.003
300.003
300.004
300.004
300.005
300.006
300.006
300.007
300.008
300.009
300.01
300.012
300.013
300.014
300.016
300.018
300.019
300.021
300.023
300.025
300.027
300.03
300.032
300.035
300.037
300.04
300.043
300.045
300.048
300.051
300.054
300.058
300.061
300.064
300.068
300.071
300.074
300.078
300.082
300.085
300.089
300.092
300.096
300.1
300.104
300.107
300.111
300.115
300.118
300.122
300.126
300.129
300.133
300.137
300.14
300.144
300.148
300.151
300.155
300.158
300.161
300.165
300.168
300.171
300.175
300.178
300.181
300.184
300.187
300.19
300.193
300
300
300
300
300.001
300.001
300.001
300.001
300.002
300.002
300.002
300.003
300.003
300.004
300.004
300.005
300.005
300.006
300.007
300.008
300.009
300.01
300.011
300.012
300.013
300.014
300.016
300.017
300.019
300.021
300.022
300.024
300.026
300.028
300.03
300.032
300.035
300.037
300.039
300.042
300.044
300.047
300.049
300.052
300.055
300.057
300.06
300.063
300.066
300.068
300.071
300.074
300.077
300.08
300.083
300.086
300.089
300.092
300.095
300.098
300.1
300.103
300.106
300.109
300.112
300.115
300.117
300.12
300.123
300.126
300.128
300.131
300.134
300.136
300.139
300.141
300.144
300.146
300.149
300.151
300.153
300
300
300
300
300.001
300.001
300.001
300.001
300.001
300.001
300.002
300.002
300.002
300.003
300.003
300.004
300.004
300.005
300.005
300.006
300.007
300.008
300.009
300.01
300.011
300.012
300.013
300.014
300.015
300.016
300.018
300.019
300.021
300.022
300.024
300.026
300.027
300.029
300.031
300.033
300.035
300.037
300.039
300.041
300.043
300.045
300.047
300.049
300.051
300.054
300.056
300.058
300.06
300.063
300.065
300.067
300.069
300.072
300.074
300.076
300.078
300.08
300.083
300.085
300.087
300.089
300.091
300.093
300.096
300.098
300.1
300.102
300.104
300.106
300.108
300.11
300.111
300.113
300.115
300.117
300.119
300
300
300
300
300
300.001
300.001
300.001
300.001
300.001
300.001
300.002
300.002
300.002
300.003
300.003
300.003
300.004
300.004
300.005
300.005
300.006
300.007
300.007
300.008
300.009
300.01
300.011
300.012
300.013
300.014
300.015
300.016
300.017
300.018
300.02
300.021
300.022
300.024
300.025
300.027
300.028
300.03
300.031
300.033
300.034
300.036
300.038
300.039
300.041
300.043
300.044
300.046
300.048
300.049
300.051
300.053
300.054
300.056
300.058
300.059
300.061
300.063
300.064
300.066
300.068
300.069
300.071
300.072
300.074
300.075
300.077
300.078
300.08
300.081
300.083
300.084
300.086
300.087
300.088
300.09
300
300
300
300
300
300
300
300.001
300.001
300.001
300.001
300.001
300.001
300.002
300.002
300.002
300.002
300.003
300.003
300.004
300.004
300.004
300.005
300.006
300.006
300.007
300.007
300.008
300.009
300.01
300.01
300.011
300.012
300.013
300.014
300.015
300.016
300.017
300.018
300.019
300.02
300.021
300.022
300.023
300.024
300.026
300.027
300.028
300.029
300.03
300.032
300.033
300.034
300.035
300.036
300.038
300.039
300.04
300.041
300.043
300.044
300.045
300.046
300.047
300.049
300.05
300.051
300.052
300.053
300.054
300.055
300.057
300.058
300.059
300.06
300.061
300.062
300.063
300.064
300.065
300.066
300
300
300
300
300
300
300
300
300
300.001
300.001
300.001
300.001
300.001
300.001
300.002
300.002
300.002
300.002
300.003
300.003
300.003
300.004
300.004
300.004
300.005
300.005
300.006
300.006
300.007
300.007
300.008
300.009
300.009
300.01
300.011
300.011
300.012
300.013
300.014
300.014
300.015
300.016
300.017
300.018
300.018
300.019
300.02
300.021
300.022
300.023
300.024
300.024
300.025
300.026
300.027
300.028
300.029
300.03
300.031
300.031
300.032
300.033
300.034
300.035
300.036
300.037
300.037
300.038
300.039
300.04
300.041
300.041
300.042
300.043
300.044
300.044
300.045
300.046
300.047
300.047
300
300
300
300
300
300
300
300
300
300
300
300.001
300.001
300.001
300.001
300.001
300.001
300.001
300.002
300.002
300.002
300.002
300.003
300.003
300.003
300.003
300.004
300.004
300.005
300.005
300.005
300.006
300.006
300.007
300.007
300.008
300.008
300.009
300.009
300.01
300.01
300.011
300.011
300.012
300.013
300.013
300.014
300.014
300.015
300.016
300.016
300.017
300.017
300.018
300.019
300.019
300.02
300.02
300.021
300.022
300.022
300.023
300.024
300.024
300.025
300.025
300.026
300.026
300.027
300.028
300.028
300.029
300.029
300.03
300.03
300.031
300.031
300.032
300.032
300.033
300.033
300
300
300
300
300
300
300
300
300
300
300
300
300
300.001
300.001
300.001
300.001
300.001
300.001
300.001
300.001
300.002
300.002
300.002
300.002
300.002
300.003
300.003
300.003
300.004
300.004
300.004
300.004
300.005
300.005
300.005
300.006
300.006
300.007
300.007
300.007
300.008
300.008
300.009
300.009
300.009
300.01
300.01
300.011
300.011
300.012
300.012
300.013
300.013
300.013
300.014
300.014
300.015
300.015
300.016
300.016
300.017
300.017
300.017
300.018
300.018
300.019
300.019
300.02
300.02
300.02
300.021
300.021
300.022
300.022
300.022
300.023
300.023
300.023
300.024
300.024
300
300
300
300
300
300
300
300
300
300
300
300
300
300
300
300.001
300.001
300.001
300.001
300.001
300.001
300.001
300.001
300.002
300.002
300.002
300.002
300.002
300.003
300.003
300.003
300.003
300.004
300.004
300.004
300.004
300.005
300.005
300.005
300.006
300.006
300.006
300.007
300.007
300.007
300.008
300.008
300.008
300.009
300.009
300.009
300.01
300.01
300.01
300.011
300.011
300.012
300.012
300.012
300.013
300.013
300.013
300.014
300.014
300.014
300.015
300.015
300.015
300.016
300.016
300.016
300.017
300.017
300.017
300.018
300.018
300.018
300.019
300.019
300.019
300.019
302.434
302.556
302.629
302.696
302.754
302.801
302.832
302.867
302.902
302.935
302.962
302.991
303.021
303.049
303.077
303.105
303.13
303.152
303.176
303.2
303.222
303.245
303.268
303.29
303.312
303.334
303.354
303.374
303.394
303.414
303.433
303.451
303.469
303.487
303.505
303.522
303.539
303.555
303.571
303.587
303.602
303.617
303.632
303.649
303.664
303.679
303.692
303.707
303.721
303.735
303.748
303.76
303.773
303.785
303.798
303.811
303.823
303.835
303.847
303.858
303.867
303.877
303.887
303.898
303.908
303.917
303.927
303.936
303.945
303.954
303.962
303.97
303.978
303.985
303.992
303.999
304.006
304.013
304.019
304.025
304.032
304.038
304.043
304.048
304.053
304.057
304.061
304.066
304.071
304.074
304.078
304.081
304.085
304.088
304.091
304.094
304.097
304.099
304.102
304.104
304.106
304.108
304.109
304.111
304.112
304.114
304.115
304.116
304.116
304.117
304.118
304.118
304.119
304.119
304.12
304.12
304.12
304.12
304.12
304.12
304.12
304.119
304.119
304.118
304.117
304.116
304.115
304.113
304.111
304.108
304.105
304.102
304.098
304.094
304.089
304.083
304.077
304.07
304.062
304.053
304.044
304.033
304.021
304.008
303.993
303.977
303.959
303.939
303.916
303.889
303.856
303.822
303.787
303.746
303.7
303.646
303.586
303.48
303.379
303.247
303.067
302.335
302.442
302.525
302.594
302.654
302.705
302.746
302.785
302.822
302.856
302.888
302.919
302.949
302.979
303.007
303.035
303.061
303.086
303.111
303.135
303.158
303.182
303.205
303.227
303.249
303.271
303.292
303.313
303.333
303.353
303.372
303.391
303.409
303.428
303.445
303.463
303.48
303.496
303.513
303.529
303.544
303.56
303.575
303.591
303.606
303.621
303.635
303.65
303.664
303.678
303.691
303.704
303.716
303.729
303.742
303.754
303.767
303.779
303.791
303.802
303.812
303.822
303.832
303.842
303.852
303.862
303.871
303.88
303.889
303.898
303.906
303.914
303.922
303.93
303.937
303.944
303.951
303.957
303.963
303.97
303.976
303.982
303.988
303.993
303.997
304.002
304.006
304.011
304.015
304.019
304.023
304.026
304.03
304.033
304.036
304.039
304.042
304.044
304.047
304.049
304.051
304.053
304.054
304.056
304.057
304.059
304.06
304.061
304.061
304.062
304.063
304.063
304.064
304.065
304.065
304.065
304.065
304.065
304.065
304.065
304.065
304.064
304.064
304.063
304.062
304.061
304.06
304.058
304.056
304.053
304.05
304.047
304.043
304.039
304.034
304.028
304.022
304.015
304.007
303.999
303.989
303.978
303.967
303.953
303.939
303.923
303.904
303.884
303.861
303.834
303.802
303.767
303.732
303.69
303.643
303.588
303.523
303.421
303.315
303.177
302.98
302.254
302.347
302.427
302.497
302.558
302.611
302.657
302.699
302.739
302.775
302.809
302.842
302.874
302.904
302.934
302.962
302.99
303.016
303.041
303.066
303.09
303.114
303.138
303.161
303.183
303.205
303.227
303.248
303.268
303.288
303.308
303.327
303.346
303.364
303.382
303.4
303.417
303.434
303.45
303.467
303.483
303.498
303.514
303.53
303.545
303.56
303.575
303.589
303.603
303.617
303.63
303.643
303.656
303.669
303.682
303.694
303.707
303.719
303.731
303.742
303.752
303.762
303.773
303.783
303.793
303.802
303.812
303.821
303.83
303.839
303.847
303.855
303.863
303.871
303.878
303.885
303.892
303.898
303.905
303.911
303.917
303.923
303.929
303.934
303.939
303.943
303.948
303.952
303.957
303.961