/*--------------------------------*- C++ -*----------------------------------*\
| =========                 |                                                 |
| \\      /  F ield         | OpenFOAM: The Open Source CFD Toolbox           |
|  \\    /   O peration     | Version:  2106                                  |
|   \\  /    A nd           | Website:  www.openfoam.com                      |
|    \\/     M anipulation  |                                                 |
\*---------------------------------------------------------------------------*/
FoamFile
{
    version     2.0;
    format      ascii;
    arch        "LSB;label=32;scalar=64";
    class       volVectorField;
    location    "1";
    object      U;
}
// * * * * * * * * * * * * * * * * * * * * * * * * * * * * * * * * * * * * * //

dimensions      [0 1 -1 0 0 0 0];

internalField   nonuniform List<vector> 
12013
(
(0.100006 -1.53746e-06 0)
(0.100028 -2.51124e-06 0)
(0.100058 -2.81854e-06 0)
(0.100086 -2.33363e-06 0)
(0.100106 -1.09103e-06 0)
(0.100109 7.35026e-07 0)
(0.100093 2.84508e-06 0)
(0.100057 4.89532e-06 0)
(0.100005 6.59256e-06 0)
(0.0999402 7.76299e-06 0)
(0.0998693 8.36742e-06 0)
(0.0997972 8.47423e-06 0)
(0.0997277 8.21171e-06 0)
(0.0996631 7.71849e-06 0)
(0.0996048 7.11209e-06 0)
(0.0995529 6.47386e-06 0)
(0.0995072 5.8481e-06 0)
(0.0994675 5.25075e-06 0)
(0.0994332 4.6788e-06 0)
(0.099404 4.12058e-06 0)
(0.0993797 3.56184e-06 0)
(0.0993602 2.98911e-06 0)
(0.0993455 2.39303e-06 0)
(0.0993356 1.76603e-06 0)
(0.0993305 1.10454e-06 0)
(0.0993304 4.05938e-07 0)
(0.0993353 -3.29413e-07 0)
(0.0993452 -1.10084e-06 0)
(0.0993602 -1.90721e-06 0)
(0.0993803 -2.74566e-06 0)
(0.0994056 -3.61512e-06 0)
(0.0994359 -4.51138e-06 0)
(0.0994712 -5.43105e-06 0)
(0.0995116 -6.37011e-06 0)
(0.0995568 -7.32356e-06 0)
(0.0996067 -8.28506e-06 0)
(0.0996612 -9.2479e-06 0)
(0.0997201 -1.02034e-05 0)
(0.0997832 -1.11428e-05 0)
(0.0998502 -1.20542e-05 0)
(0.0999207 -1.29255e-05 0)
(0.0999945 -1.37424e-05 0)
(0.100071 -1.44879e-05 0)
(0.10015 -1.51443e-05 0)
(0.10023 -1.56902e-05 0)
(0.100312 -1.61021e-05 0)
(0.100394 -1.63534e-05 0)
(0.100476 -1.64142e-05 0)
(0.100557 -1.62505e-05 0)
(0.100636 -1.58233e-05 0)
(0.100712 -1.50894e-05 0)
(0.100783 -1.39976e-05 0)
(0.100849 -1.24903e-05 0)
(0.100908 -1.04999e-05 0)
(0.100958 -7.94861e-06 0)
(0.100998 -4.74447e-06 0)
(0.101026 -7.78309e-07 0)
(0.101038 4.07982e-06 0)
(0.101034 9.98538e-06 0)
(0.101009 1.71268e-05 0)
(0.100961 2.57348e-05 0)
(0.100885 3.60949e-05 0)
(0.100776 4.85624e-05 0)
(0.10063 6.35877e-05 0)
(0.100439 8.17456e-05 0)
(0.100195 0.000103781 0)
(0.0998881 0.000130676 0)
(0.0995066 0.000163742 0)
(0.0990346 0.000204767 0)
(0.0984522 0.000256228 0)
(0.0977336 0.000321642 0)
(0.0968441 0.000406107 0)
(0.0957368 0.000517193 0)
(0.0943466 0.000666426 0)
(0.0925808 0.000871806 0)
(0.0903049 0.00116216 0)
(0.0873186 0.00158485 0)
(0.0833033 0.00222182 0)
(0.0777578 0.00323962 0)
(0.0700783 0.00510548 0)
(0.0614149 0.00992776 0)
(0.100006 -4.71337e-06 0)
(0.100027 -7.7192e-06 0)
(0.100058 -8.67242e-06 0)
(0.100087 -7.19241e-06 0)
(0.100106 -3.38444e-06 0)
(0.10011 2.21597e-06 0)
(0.100094 8.69261e-06 0)
(0.100059 1.49883e-05 0)
(0.100007 2.02043e-05 0)
(0.0999425 2.38047e-05 0)
(0.0998718 2.56685e-05 0)
(0.0997998 2.60051e-05 0)
(0.0997303 2.52067e-05 0)
(0.0996657 2.36989e-05 0)
(0.0996073 2.18428e-05 0)
(0.0995552 1.98874e-05 0)
(0.0995094 1.79702e-05 0)
(0.0994694 1.61392e-05 0)
(0.0994349 1.43863e-05 0)
(0.0994054 1.26758e-05 0)
(0.0993808 1.09637e-05 0)
(0.099361 9.20998e-06 0)
(0.099346 7.38416e-06 0)
(0.0993357 5.46456e-06 0)
(0.0993302 3.43921e-06 0)
(0.0993296 1.30191e-06 0)
(0.099334 -9.47908e-07 0)
(0.0993434 -3.3083e-06 0)
(0.0993578 -5.77406e-06 0)
(0.0993773 -8.33911e-06 0)
(0.0994018 -1.09966e-05 0)
(0.0994313 -1.37366e-05 0)
(0.0994658 -1.65477e-05 0)
(0.0995053 -1.94165e-05 0)
(0.0995495 -2.23281e-05 0)
(0.0995984 -2.52641e-05 0)
(0.0996518 -2.8203e-05 0)
(0.0997095 -3.11191e-05 0)
(0.0997713 -3.39831e-05 0)
(0.0998369 -3.67612e-05 0)
(0.099906 -3.9415e-05 0)
(0.0999782 -4.19003e-05 0)
(0.100053 -4.41666e-05 0)
(0.10013 -4.61576e-05 0)
(0.100209 -4.78088e-05 0)
(0.100289 -4.90483e-05 0)
(0.100369 -4.97941e-05 0)
(0.100449 -4.9955e-05 0)
(0.100528 -4.94271e-05 0)
(0.100604 -4.80917e-05 0)
(0.100678 -4.58143e-05 0)
(0.100747 -4.24407e-05 0)
(0.10081 -3.77942e-05 0)
(0.100867 -3.16693e-05 0)
(0.100915 -2.38273e-05 0)
(0.100953 -1.39879e-05 0)
(0.100978 -1.81949e-06 0)
(0.100989 1.30735e-05 0)
(0.100982 3.11625e-05 0)
(0.100956 5.30189e-05 0)
(0.100906 7.93409e-05 0)
(0.100829 0.00011099 0)
(0.10072 0.000149038 0)
(0.100574 0.000194836 0)
(0.100385 0.000250108 0)
(0.100144 0.000317075 0)
(0.0998435 0.000398652 0)
(0.0994709 0.000498711 0)
(0.0990126 0.000622488 0)
(0.0984506 0.000777189 0)
(0.0977623 0.000972919 0)
(0.0969183 0.00122413 0)
(0.0958801 0.00155191 0)
(0.0945968 0.00198763 0)
(0.0930005 0.00257877 0)
(0.091001 0.00339806 0)
(0.0884807 0.004557 0)
(0.0852841 0.00622466 0)
(0.0812366 0.0086531 0)
(0.0763892 0.0121443 0)
(0.0721545 0.0165845 0)
(0.100006 -8.07605e-06 0)
(0.100027 -1.33095e-05 0)
(0.100058 -1.49816e-05 0)
(0.100087 -1.24704e-05 0)
(0.100107 -5.95193e-06 0)
(0.100111 3.65887e-06 0)
(0.100097 1.47909e-05 0)
(0.100062 2.56293e-05 0)
(0.100011 3.46256e-05 0)
(0.0999476 4.0855e-05 0)
(0.0998775 4.41022e-05 0)
(0.0998059 4.47231e-05 0)
(0.0997366 4.3386e-05 0)
(0.099672 4.08228e-05 0)
(0.0996133 3.76538e-05 0)
(0.099561 3.43084e-05 0)
(0.0995148 3.10234e-05 0)
(0.0994744 2.78843e-05 0)
(0.0994394 2.48789e-05 0)
(0.0994095 2.19465e-05 0)
(0.0993844 1.90134e-05 0)
(0.0993641 1.60107e-05 0)
(0.0993484 1.28859e-05 0)
(0.0993374 9.60331e-06 0)
(0.0993312 6.14129e-06 0)
(0.0993298 2.49019e-06 0)
(0.0993333 -1.35151e-06 0)
(0.0993417 -5.37992e-06 0)
(0.0993551 -9.58654e-06 0)
(0.0993733 -1.39612e-05 0)
(0.0993965 -1.84902e-05 0)
(0.0994247 -2.31577e-05 0)
(0.0994576 -2.79439e-05 0)
(0.0994954 -3.2826e-05 0)
(0.0995378 -3.77772e-05 0)
(0.0995847 -4.27665e-05 0)
(0.099636 -4.7756e-05 0)
(0.0996914 -5.27024e-05 0)
(0.0997508 -5.75547e-05 0)
(0.0998138 -6.22555e-05 0)
(0.0998801 -6.6738e-05 0)
(0.0999494 -7.0926e-05 0)
(0.100021 -7.47338e-05 0)
(0.100095 -7.80638e-05 0)
(0.10017 -8.08064e-05 0)
(0.100247 -8.28377e-05 0)
(0.100323 -8.40181e-05 0)
(0.100399 -8.41907e-05 0)
(0.100474 -8.31779e-05 0)
(0.100546 -8.07777e-05 0)
(0.100615 -7.676e-05 0)
(0.10068 -7.08628e-05 0)
(0.100739 -6.27845e-05 0)
(0.100791 -5.21767e-05 0)
(0.100834 -3.86334e-05 0)
(0.100867 -2.16804e-05 0)
(0.100888 -7.5629e-07 0)
(0.100894 2.48039e-05 0)
(0.100884 5.57928e-05 0)
(0.100853 9.31681e-05 0)
(0.100801 0.000138095 0)
(0.100721 0.000192007 0)
(0.100611 0.000256677 0)
(0.100465 0.000334329 0)
(0.100278 0.000427778 0)
(0.100043 0.00054063 0)
(0.0997517 0.000677561 0)
(0.0993941 0.000844719 0)
(0.0989586 0.0010503 0)
(0.0984308 0.00130537 0)
(0.0977931 0.00162515 0)
(0.0970243 0.00203078 0)
(0.0960985 0.00255207 0)
(0.0949848 0.00323137 0)
(0.0936482 0.00412912 0)
(0.0920529 0.00533061 0)
(0.0901712 0.00695217 0)
(0.088001 0.00914012 0)
(0.085612 0.0120468 0)
(0.0832862 0.0157029 0)
(0.081789 0.0194878 0)
(0.100005 -1.16214e-05 0)
(0.100027 -1.93009e-05 0)
(0.100058 -2.17815e-05 0)
(0.100087 -1.82322e-05 0)
(0.100108 -8.88648e-06 0)
(0.100114 4.94743e-06 0)
(0.1001 2.10136e-05 0)
(0.100068 3.66963e-05 0)
(0.100018 4.97576e-05 0)
(0.0999559 5.88494e-05 0)
(0.099887 6.36467e-05 0)
(0.0998161 6.46482e-05 0)
(0.0997472 6.28083e-05 0)
(0.0996826 5.91792e-05 0)
(0.0996238 5.4655e-05 0)
(0.0995711 4.98593e-05 0)
(0.0995245 4.51382e-05 0)
(0.0994836 4.06203e-05 0)
(0.099448 3.62922e-05 0)
(0.0994174 3.20705e-05 0)
(0.0993916 2.78499e-05 0)
(0.0993705 2.35341e-05 0)
(0.0993541 1.90474e-05 0)
(0.0993422 1.43388e-05 0)
(0.099335 9.37759e-06 0)
(0.0993326 4.14978e-06 0)
(0.0993349 -1.34677e-06 0)
(0.0993419 -7.10558e-06 0)
(0.0993538 -1.31156e-05 0)
(0.0993704 -1.93608e-05 0)
(0.0993919 -2.58216e-05 0)
(0.099418 -3.24743e-05 0)
(0.0994488 -3.92904e-05 0)
(0.0994842 -4.62371e-05 0)
(0.0995241 -5.32752e-05 0)
(0.0995683 -6.03588e-05 0)
(0.0996166 -6.74333e-05 0)
(0.0996689 -7.44358e-05 0)
(0.0997248 -8.12932e-05 0)
(0.0997842 -8.79214e-05 0)
(0.0998466 -9.42246e-05 0)
(0.0999117 -0.000100092 0)
(0.0999791 -0.000105401 0)
(0.100048 -0.000110011 0)
(0.100119 -0.000113764 0)
(0.10019 -0.000116481 0)
(0.100261 -0.000117963 0)
(0.100331 -0.000117984 0)
(0.1004 -0.000116289 0)
(0.100466 -0.000112591 0)
(0.100529 -0.00010656 0)
(0.100587 -9.78228e-05 0)
(0.10064 -8.59502e-05 0)
(0.100685 -7.04472e-05 0)
(0.100722 -5.07389e-05 0)
(0.100749 -2.61548e-05 0)
(0.100763 4.09571e-06 0)
(0.100763 4.09431e-05 0)
(0.100747 8.54942e-05 0)
(0.100712 0.000139081 0)
(0.100655 0.000203316 0)
(0.100573 0.000280166 0)
(0.100462 0.000372053 0)
(0.100317 0.000481986 0)
(0.100135 0.000613734 0)
(0.0999083 0.000772072 0)
(0.0996311 0.000963105 0)
(0.0992959 0.00119472 0)
(0.0988937 0.00147723 0)
(0.0984147 0.00182422 0)
(0.0978477 0.00225377 0)
(0.0971805 0.0027901 0)
(0.0964012 0.00346576 0)
(0.0954991 0.00432429 0)
(0.0944694 0.00542305 0)
(0.093319 0.00683472 0)
(0.0920792 0.00864363 0)
(0.0908231 0.0109281 0)
(0.0896923 0.0137115 0)
(0.0889257 0.01684 0)
(0.0888265 0.0197046 0)
(0.100005 -1.53703e-05 0)
(0.100027 -2.57207e-05 0)
(0.100057 -2.91268e-05 0)
(0.100087 -2.45696e-05 0)
(0.100109 -1.23204e-05 0)
(0.100117 5.91316e-06 0)
(0.100106 2.71693e-05 0)
(0.100075 4.79975e-05 0)
(0.100028 6.54293e-05 0)
(0.099968 7.76579e-05 0)
(0.0999007 8.42231e-05 0)
(0.099831 8.57547e-05 0)
(0.0997627 8.34965e-05 0)
(0.0996984 7.88285e-05 0)
(0.0996395 7.29342e-05 0)
(0.0995864 6.66442e-05 0)
(0.0995392 6.0427e-05 0)
(0.0994977 5.4462e-05 0)
(0.0994614 4.87411e-05 0)
(0.0994301 4.31608e-05 0)
(0.0994035 3.75868e-05 0)
(0.0993815 3.18947e-05 0)
(0.0993641 2.59866e-05 0)
(0.0993512 1.97953e-05 0)
(0.0993429 1.32805e-05 0)
(0.0993392 6.42501e-06 0)
(0.0993401 -7.75139e-07 0)
(0.0993455 -8.31115e-06 0)
(0.0993556 -1.61675e-05 0)
(0.0993703 -2.43228e-05 0)
(0.0993896 -3.27506e-05 0)
(0.0994134 -4.14193e-05 0)
(0.0994416 -5.02904e-05 0)
(0.0994741 -5.93193e-05 0)
(0.0995109 -6.8454e-05 0)
(0.0995517 -7.76323e-05 0)
(0.0995964 -8.67824e-05 0)
(0.0996447 -9.58198e-05 0)
(0.0996964 -0.000104647 0)
(0.0997512 -0.000113153 0)
(0.0998088 -0.00012121 0)
(0.0998688 -0.000128672 0)
(0.0999307 -0.000135376 0)
(0.0999941 -0.000141137 0)
(0.100058 -0.000145746 0)
(0.100123 -0.000148969 0)
(0.100187 -0.000150543 0)
(0.100251 -0.000150172 0)
(0.100312 -0.000147522 0)
(0.100371 -0.000142216 0)
(0.100426 -0.000133825 0)
(0.100477 -0.000121864 0)
(0.100521 -0.000105775 0)
(0.100559 -8.49171e-05 0)
(0.100587 -5.85499e-05 0)
(0.100606 -2.58099e-05 0)
(0.100613 1.4311e-05 0)
(0.100606 6.29948e-05 0)
(0.100584 0.000121642 0)
(0.100543 0.000191925 0)
(0.100482 0.000275856 0)
(0.100397 0.000375868 0)
(0.100286 0.000494925 0)
(0.100145 0.000636666 0)
(0.0999693 0.000805596 0)
(0.0997556 0.00100732 0)
(0.0994988 0.00124889 0)
(0.0991938 0.0015392 0)
(0.0988353 0.00188957 0)
(0.0984181 0.00231445 0)
(0.0979375 0.00283234 0)
(0.0973902 0.00346687 0)
(0.0967762 0.00424797 0)
(0.0961011 0.00521288 0)
(0.0953799 0.00640605 0)
(0.0946439 0.00787657 0)
(0.0939476 0.00966937 0)
(0.0933785 0.0118042 0)
(0.0930599 0.0142335 0)
(0.0931368 0.0167686 0)
(0.0936996 0.018983 0)
(0.100005 -1.93414e-05 0)
(0.100027 -3.2599e-05 0)
(0.100057 -3.7081e-05 0)
(0.100088 -3.15902e-05 0)
(0.100111 -1.64149e-05 0)
(0.100121 6.34634e-06 0)
(0.100112 3.30147e-05 0)
(0.100085 5.9282e-05 0)
(0.100041 8.14108e-05 0)
(0.0999838 9.70962e-05 0)
(0.0999189 0.000105707 0)
(0.0998509 0.000107984 0)
(0.0997837 0.000105451 0)
(0.0997198 9.98193e-05 0)
(0.0996608 9.25735e-05 0)
(0.0996074 8.47668e-05 0)
(0.0995596 7.70032e-05 0)
(0.0995174 6.95261e-05 0)
(0.0994803 6.23418e-05 0)
(0.0994482 5.53317e-05 0)
(0.0994208 4.83371e-05 0)
(0.0993979 4.12066e-05 0)
(0.0993795 3.38199e-05 0)
(0.0993655 2.6095e-05 0)
(0.099356 1.7982e-05 0)
(0.0993508 9.45822e-06 0)
(0.0993501 5.20044e-07 0)
(0.0993539 -8.82206e-06 0)
(0.099362 -1.85475e-05 0)
(0.0993745 -2.86293e-05 0)
(0.0993914 -3.90335e-05 0)
(0.0994125 -4.97186e-05 0)
(0.0994377 -6.06362e-05 0)
(0.099467 -7.17291e-05 0)
(0.0995002 -8.29302e-05 0)
(0.0995372 -9.41607e-05 0)
(0.0995776 -0.000105329 0)
(0.0996214 -0.000116328 0)
(0.0996683 -0.000127036 0)
(0.0997178 -0.000137311 0)
(0.0997698 -0.000146992 0)
(0.0998238 -0.000155898 0)
(0.0998794 -0.000163823 0)
(0.099936 -0.000170535 0)
(0.0999933 -0.000175775 0)
(0.100051 -0.000179249 0)
(0.100107 -0.00018063 0)
(0.100162 -0.000179552 0)
(0.100216 -0.000175601 0)
(0.100266 -0.000168311 0)
(0.100312 -0.000157155 0)
(0.100354 -0.000141535 0)
(0.100389 -0.000120771 0)
(0.100417 -9.40819e-05 0)
(0.100437 -6.057e-05 0)
(0.100447 -1.91935e-05 0)
(0.100446 3.12533e-05 0)
(0.100432 9.2175e-05 0)
(0.100403 0.000165228 0)
(0.100357 0.000252371 0)
(0.100292 0.000355938 0)
(0.100206 0.000478718 0)
(0.100097 0.000624066 0)
(0.0999609 0.000796045 0)
(0.0997963 0.000999587 0)
(0.0996 0.00124072 0)
(0.0993693 0.00152684 0)
(0.0991017 0.00186702 0)
(0.0987953 0.00227244 0)
(0.0984491 0.00275681 0)
(0.0980642 0.0033369 0)
(0.0976443 0.00403292 0)
(0.0971977 0.00486876 0)
(0.0967397 0.00587155 0)
(0.0962952 0.0070699 0)
(0.0959026 0.00848966 0)
(0.0956171 0.0101449 0)
(0.0955111 0.0120219 0)
(0.0956683 0.0140529 0)
(0.0961611 0.0160835 0)
(0.0969971 0.0178495 0)
(0.100005 -2.35495e-05 0)
(0.100026 -3.9968e-05 0)
(0.100057 -4.57138e-05 0)
(0.100089 -3.94163e-05 0)
(0.100113 -2.13552e-05 0)
(0.100125 5.99926e-06 0)
(0.10012 3.82586e-05 0)
(0.100097 7.02425e-05 0)
(0.100057 9.74137e-05 0)
(0.100003 0.000116923 0)
(0.0999416 0.000127926 0)
(0.0998758 0.000131237 0)
(0.0998099 0.000128639 0)
(0.0997468 0.000122177 0)
(0.0996879 0.00011364 0)
(0.0996342 0.00010432 0)
(0.099586 9.4974e-05 0)
(0.0995431 8.59255e-05 0)
(0.0995053 7.72068e-05 0)
(0.0994723 6.86946e-05 0)
(0.099444 6.02096e-05 0)
(0.0994202 5.15778e-05 0)
(0.0994007 4.26585e-05 0)
(0.0993856 3.3354e-05 0)
(0.0993748 2.36057e-05 0)
(0.0993682 1.33853e-05 0)
(0.0993659 2.68942e-06 0)
(0.0993678 -8.46947e-06 0)
(0.0993739 -2.00659e-05 0)
(0.099384 -3.2066e-05 0)
(0.0993983 -4.44275e-05 0)
(0.0994165 -5.70989e-05 0)
(0.0994385 -7.002e-05 0)
(0.0994643 -8.31198e-05 0)
(0.0994936 -9.63154e-05 0)
(0.0995263 -0.00010951 0)
(0.0995622 -0.00012259 0)
(0.099601 -0.000135425 0)
(0.0996425 -0.000147866 0)
(0.0996862 -0.000159741 0)
(0.099732 -0.000170854 0)
(0.0997794 -0.000180987 0)
(0.099828 -0.000189889 0)
(0.0998773 -0.000197283 0)
(0.0999268 -0.000202854 0)
(0.0999759 -0.000206254 0)
(0.100024 -0.00020709 0)
(0.10007 -0.000204924 0)
(0.100114 -0.000199265 0)
(0.100155 -0.000189562 0)
(0.100192 -0.000175192 0)
(0.100224 -0.000155453 0)
(0.100249 -0.000129549 0)
(0.100268 -9.65719e-05 0)
(0.100279 -5.54826e-05 0)
(0.10028 -5.08659e-06 0)
(0.10027 5.59867e-05 0)
(0.100249 0.000129324 0)
(0.100213 0.00021678 0)
(0.100163 0.000320524 0)
(0.100096 0.000443104 0)
(0.100011 0.000587525 0)
(0.0999052 0.000757347 0)
(0.0997782 0.000956795 0)
(0.099628 0.0011909 0)
(0.0994534 0.00146565 0)
(0.0992538 0.00178817 0)
(0.0990289 0.00216696 0)
(0.0987797 0.00261204 0)
(0.0985089 0.00313516 0)
(0.0982214 0.00374988 0)
(0.0979255 0.0044715 0)
(0.0976341 0.00531654 0)
(0.0973659 0.00630167 0)
(0.0971477 0.00744141 0)
(0.097015 0.00874416 0)
(0.0970121 0.0102055 0)
(0.09719 0.0117984 0)
(0.0975976 0.0134605 0)
(0.0982647 0.015083 0)
(0.0991737 0.0165113 0)
(0.100005 -2.80088e-05 0)
(0.100026 -4.78605e-05 0)
(0.100057 -5.50979e-05 0)
(0.100089 -4.81772e-05 0)
(0.100116 -2.73426e-05 0)
(0.100131 4.598e-06 0)
(0.10013 4.25705e-05 0)
(0.100111 8.05241e-05 0)
(0.100075 0.000113095 0)
(0.100026 0.000136843 0)
(0.0999682 0.000150652 0)
(0.0999052 0.000155365 0)
(0.0998412 0.000152992 0)
(0.0997791 0.000145895 0)
(0.0997206 0.000136177 0)
(0.0996668 0.000125379 0)
(0.0996181 0.000114433 0)
(0.0995746 0.000103762 0)
(0.0995361 9.34396e-05 0)
(0.0995023 8.3351e-05 0)
(0.0994732 7.33047e-05 0)
(0.0994484 6.31086e-05 0)
(0.099428 5.26046e-05 0)
(0.0994118 4.16802e-05 0)
(0.0993997 3.02673e-05 0)
(0.0993916 1.83342e-05 0)
(0.0993877 5.87599e-06 0)
(0.0993877 -7.09179e-06 0)
(0.0993916 -2.05391e-05 0)
(0.0993993 -3.44238e-05 0)
(0.0994108 -4.86949e-05 0)
(0.099426 -6.32902e-05 0)
(0.0994447 -7.81359e-05 0)
(0.0994667 -9.31463e-05 0)
(0.0994919 -0.000108221 0)
(0.0995201 -0.000123243 0)
(0.0995511 -0.000138078 0)
(0.0995846 -0.000152569 0)
(0.0996203 -0.000166539 0)
(0.0996579 -0.000179784 0)
(0.0996971 -0.000192075 0)
(0.0997375 -0.000203151 0)
(0.0997786 -0.000212722 0)
(0.09982 -0.000220459 0)
(0.0998612 -0.000225999 0)
(0.0999016 -0.000228935 0)
(0.0999407 -0.000228812 0)
(0.0999777 -0.000225125 0)
(0.100012 -0.000217308 0)
(0.100043 -0.000204729 0)
(0.10007 -0.000186679 0)
(0.100092 -0.000162364 0)
(0.100108 -0.000130884 0)
(0.100117 -9.12238e-05 0)
(0.100118 -4.22287e-05 0)
(0.100111 1.74139e-05 0)
(0.100093 8.91946e-05 0)
(0.100065 0.00017483 0)
(0.100024 0.000276297 0)
(0.099971 0.000395877 0)
(0.0999033 0.000536209 0)
(0.0998205 0.000700355 0)
(0.0997216 0.000891865 0)
(0.099606 0.00111486 0)
(0.0994735 0.00137413 0)
(0.0993242 0.00167521 0)
(0.0991589 0.00202445 0)
(0.0989795 0.00242912 0)
(0.0987891 0.00289743 0)
(0.0985927 0.00343843 0)
(0.0983974 0.00406191 0)
(0.0982136 0.00477792 0)
(0.0980553 0.00559608 0)
(0.0979409 0.00652433 0)
(0.0978937 0.00756695 0)
(0.0979417 0.00872164 0)
(0.0981167 0.00997557 0)
(0.0984501 0.0113004 0)
(0.0989675 0.0126474 0)
(0.0996777 0.0139455 0)
(0.10056 0.0151062 0)
(0.100005 -3.27322e-05 0)
(0.100026 -5.63075e-05 0)
(0.100057 -6.53031e-05 0)
(0.10009 -5.80014e-05 0)
(0.100119 -3.45814e-05 0)
(0.100137 1.8592e-06 0)
(0.10014 4.56022e-05 0)
(0.100126 8.97438e-05 0)
(0.100096 0.000128075 0)
(0.100052 0.000156515 0)
(0.099998 0.000173612 0)
(0.0999383 0.000180175 0)
(0.0998767 0.000178396 0)
(0.0998159 0.000170931 0)
(0.0997581 0.000160194 0)
(0.0997044 0.000147993 0)
(0.0996555 0.000135454 0)
(0.0996114 0.00012312 0)
(0.0995723 0.000111131 0)
(0.0995378 9.9393e-05 0)
(0.0995079 8.77151e-05 0)
(0.0994823 7.58932e-05 0)
(0.0994609 6.3755e-05 0)
(0.0994435 5.11763e-05 0)
(0.0994302 3.80803e-05 0)
(0.0994207 2.44306e-05 0)
(0.099415 1.02219e-05 0)
(0.0994131 -4.52732e-06 0)
(0.0994148 -1.97815e-05 0)
(0.0994201 -3.54911e-05 0)
(0.0994288 -5.15941e-05 0)
(0.0994408 -6.80167e-05 0)
(0.099456 -8.46708e-05 0)
(0.0994741 -0.000101455 0)
(0.0994951 -0.000118249 0)
(0.0995186 -0.000134916 0)
(0.0995445 -0.000151297 0)
(0.0995724 -0.00016721 0)
(0.0996021 -0.000182448 0)
(0.0996333 -0.000196776 0)
(0.0996656 -0.000209928 0)
(0.0996987 -0.000221605 0)
(0.099732 -0.000231472 0)
(0.0997652 -0.000239158 0)
(0.0997978 -0.000244247 0)
(0.0998293 -0.000246277 0)
(0.0998591 -0.000244737 0)
(0.0998866 -0.000239057 0)
(0.0999112 -0.000228607 0)
(0.0999323 -0.000212682 0)
(0.0999492 -0.000190501 0)
(0.0999611 -0.000161189 0)
(0.0999673 -0.000123767 0)
(0.099967 -7.71379e-05 0)
(0.0999595 -2.00647e-05 0)
(0.099944 4.88365e-05 0)
(0.0999197 0.000131128 0)
(0.0998859 0.000228586 0)
(0.0998418 0.000343223 0)
(0.0997868 0.000477326 0)
(0.0997204 0.000633491 0)
(0.0996422 0.000814666 0)
(0.0995523 0.00102419 0)
(0.0994508 0.00126584 0)
(0.0993383 0.00154387 0)
(0.0992163 0.00186301 0)
(0.0990868 0.0022285 0)
(0.098953 0.00264602 0)
(0.0988192 0.00312162 0)
(0.0986916 0.00366152 0)
(0.0985781 0.00427181 0)
(0.098489 0.00495794 0)
(0.0984373 0.00572404 0)
(0.0984386 0.00657185 0)
(0.098511 0.00749938 0)
(0.0986744 0.0084992 0)
(0.0989493 0.00955637 0)
(0.0993534 0.0106466 0)
(0.0998984 0.0117349 0)
(0.100584 0.0127765 0)
(0.101394 0.0137212 0)
(0.100004 -3.77298e-05 0)
(0.100026 -6.53348e-05 0)
(0.100057 -7.63909e-05 0)
(0.100091 -6.9004e-05 0)
(0.100121 -4.32596e-05 0)
(0.100142 -2.48457e-06 0)
(0.10015 4.70165e-05 0)
(0.100141 9.75198e-05 0)
(0.100117 0.000141963 0)
(0.100079 0.000175575 0)
(0.100029 0.000196499 0)
(0.0999737 0.000205431 0)
(0.0999149 0.000204691 0)
(0.0998559 0.000197195 0)
(0.0997991 0.000185662 0)
(0.0997458 0.000172176 0)
(0.0996968 0.00015808 0)
(0.0996525 0.000144064 0)
(0.0996128 0.000130356 0)
(0.0995778 0.000116903 0)
(0.0995471 0.000103528 0)
(0.0995207 9.00229e-05 0)
(0.0994984 7.62084e-05 0)
(0.09948 6.195e-05 0)
(0.0994654 4.71638e-05 0)
(0.0994544 3.18091e-05 0)
(0.0994471 1.58806e-05 0)
(0.0994432 -6.0079e-07 0)
(0.0994427 -1.75933e-05 0)
(0.0994454 -3.50383e-05 0)
(0.0994512 -5.28636e-05 0)
(0.09946 -7.09817e-05 0)
(0.0994715 -8.92896e-05 0)
(0.0994856 -0.000107668 0)
(0.0995022 -0.000125977 0)
(0.0995208 -0.000144057 0)
(0.0995414 -0.000161727 0)
(0.0995636 -0.000178775 0)
(0.0995872 -0.000194967 0)
(0.0996118 -0.000210034 0)
(0.099637 -0.000223675 0)
(0.0996625 -0.000235555 0)
(0.099688 -0.000245297 0)
(0.0997128 -0.000252485 0)
(0.0997367 -0.000256658 0)
(0.0997592 -0.000257305 0)
(0.0997796 -0.000253863 0)
(0.0997976 -0.000245707 0)
(0.0998125 -0.000232151 0)
(0.0998239 -0.000212434 0)
(0.099831 -0.000185715 0)
(0.0998334 -0.000151064 0)
(0.0998304 -0.000107447 0)
(0.0998215 -5.37164e-05 0)
(0.0998061 1.14007e-05 0)
(0.0997836 8.93112e-05 0)
(0.0997535 0.000181592 0)
(0.0997155 0.000290002 0)
(0.0996693 0.0004165 0)
(0.0996145 0.000563266 0)
(0.0995513 0.000732724 0)
(0.0994799 0.000927555 0)
(0.0994009 0.00115072 0)
(0.0993151 0.00140544 0)
(0.0992241 0.00169524 0)
(0.09913 0.00202385 0)
(0.0990356 0.00239519 0)
(0.0989448 0.00281328 0)
(0.0988624 0.00328204 0)
(0.0987946 0.00380508 0)
(0.0987491 0.0043854 0)
(0.0987351 0.00502493 0)
(0.0987631 0.00572397 0)
(0.0988452 0.00648055 0)
(0.0989943 0.00728958 0)
(0.0992234 0.00814203 0)
(0.0995444 0.00902418 0)
(0.0999666 0.00991709 0)
(0.100494 0.0107968 0)
(0.101123 0.0116355 0)
(0.101842 0.0124045 0)
(0.100004 -4.30088e-05 0)
(0.100025 -7.49589e-05 0)
(0.100056 -8.84042e-05 0)
(0.100091 -8.12721e-05 0)
(0.100123 -5.35257e-05 0)
(0.100147 -8.65502e-06 0)
(0.100159 4.65219e-05 0)
(0.100156 0.000103508 0)
(0.100138 0.000154391 0)
(0.100105 0.000193663 0)
(0.100061 0.000218986 0)
(0.10001 0.000230864 0)
(0.0999541 0.000231674 0)
(0.0998974 0.000224552 0)
(0.099842 0.000212503 0)
(0.0997894 0.0001979 0)
(0.0997406 0.000182321 0)
(0.0996962 0.000166633 0)
(0.0996562 0.000151173 0)
(0.0996207 0.000135954 0)
(0.0995894 0.000120827 0)
(0.0995622 0.000105595 0)
(0.099539 9.00738e-05 0)
(0.0995195 7.41245e-05 0)
(0.0995037 5.7657e-05 0)
(0.0994913 4.06281e-05 0)
(0.0994822 2.3032e-05 0)
(0.0994763 4.89337e-06 0)
(0.0994735 -1.37401e-05 0)
(0.0994735 -3.28007e-05 0)
(0.0994763 -5.22033e-05 0)
(0.0994817 -7.18474e-05 0)
(0.0994895 -9.16137e-05 0)
(0.0994995 -0.000111364 0)
(0.0995114 -0.000130938 0)
(0.0995251 -0.000150154 0)
(0.0995403 -0.000168804 0)
(0.0995566 -0.000186651 0)
(0.0995739 -0.000203431 0)
(0.0995917 -0.000218844 0)
(0.0996097 -0.000232555 0)
(0.0996276 -0.000244193 0)
(0.0996451 -0.000253344 0)
(0.0996616 -0.000259555 0)
(0.0996768 -0.000262321 0)
(0.0996903 -0.000261091 0)
(0.0997015 -0.000255257 0)
(0.0997102 -0.000244154 0)
(0.0997157 -0.000227051 0)
(0.0997177 -0.000203149 0)
(0.0997157 -0.000171571 0)
(0.0997092 -0.000131354 0)
(0.0996978 -8.14412e-05 0)
(0.0996811 -2.06751e-05 0)
(0.0996587 5.22053e-05 0)
(0.0996305 0.000138584 0)
(0.0995961 0.000239986 0)
(0.0995554 0.000358077 0)
(0.0995086 0.000494673 0)
(0.0994558 0.00065175 0)
(0.0993975 0.000831447 0)
(0.0993344 0.00103606 0)
(0.0992676 0.00126804 0)
(0.0991984 0.00152995 0)
(0.099129 0.00182445 0)
(0.0990617 0.00215422 0)
(0.0989998 0.0025219 0)
(0.0989473 0.0029299 0)
(0.0989089 0.0033803 0)
(0.0988903 0.00387463 0)
(0.098898 0.00441358 0)
(0.0989395 0.00499669 0)
(0.0990228 0.00562203 0)
(0.0991565 0.00628577 0)
(0.0993491 0.00698183 0)
(0.0996084 0.00770159 0)
(0.0999408 0.0084337 0)
(0.10035 0.00916419 0)
(0.100838 0.00987696 0)
(0.101399 0.0105548 0)
(0.102024 0.0111813 0)
(0.100004 -4.85709e-05 0)
(0.100025 -8.51849e-05 0)
(0.100056 -0.000101362 0)
(0.100091 -9.48522e-05 0)
(0.100124 -6.54697e-05 0)
(0.100151 -1.67998e-05 0)
(0.100167 4.3908e-05 0)
(0.10017 0.000107442 0)
(0.100157 0.00016505 0)
(0.10013 0.000210455 0)
(0.100091 0.00024076 0)
(0.100044 0.000256192 0)
(0.0999925 0.000259111 0)
(0.0999384 0.00025282 0)
(0.0998847 0.000240595 0)
(0.0998332 0.000225094 0)
(0.099785 0.000208152 0)
(0.0997407 0.000190836 0)
(0.0997006 0.000173624 0)
(0.0996647 0.000156614 0)
(0.0996329 0.000139704 0)
(0.099605 0.000122719 0)
(0.0995809 0.000105481 0)
(0.0995603 8.78502e-05 0)
(0.0995432 6.97335e-05 0)
(0.0995292 5.10855e-05 0)
(0.0995183 3.19017e-05 0)
(0.0995103 1.22104e-05 0)
(0.099505 -7.93368e-06 0)
(0.0995023 -2.84537e-05 0)
(0.099502 -4.92509e-05 0)
(0.0995038 -7.02115e-05 0)
(0.0995077 -9.11982e-05 0)
(0.0995134 -0.000112054 0)
(0.0995206 -0.000132597 0)
(0.0995291 -0.000152623 0)
(0.0995386 -0.000171899 0)
(0.099549 -0.000190162 0)
(0.0995598 -0.000207119 0)
(0.0995707 -0.00022244 0)
(0.0995815 -0.000235763 0)
(0.0995918 -0.000246681 0)
(0.0996012 -0.000254751 0)
(0.0996094 -0.000259484 0)
(0.0996161 -0.000260345 0)
(0.0996208 -0.000256748 0)
(0.0996231 -0.000248056 0)
(0.0996228 -0.000233574 0)
(0.0996194 -0.000212548 0)
(0.0996126 -0.000184159 0)
(0.0996021 -0.000147517 0)
(0.0995875 -0.000101657 0)
(0.0995686 -4.55359e-05 0)
(0.0995452 2.19713e-05 0)
(0.0995172 0.000102071 0)
(0.0994844 0.000196073 0)
(0.0994471 0.000305387 0)
(0.0994053 0.000431515 0)
(0.0993594 0.00057606 0)
(0.09931 0.000740713 0)
(0.0992579 0.000927247 0)
(0.099204 0.0011375 0)
(0.0991499 0.00137334 0)
(0.0990971 0.00163663 0)
(0.0990481 0.00192918 0)
(0.0990053 0.00225268 0)
(0.0989719 0.00260856 0)
(0.0989516 0.00299796 0)
(0.0989488 0.00342151 0)
(0.098968 0.00387921 0)
(0.0990146 0.00437024 0)
(0.0990941 0.00489279 0)
(0.0992122 0.00544382 0)
(0.0993747 0.00601895 0)
(0.0995865 0.00661232 0)
(0.0998522 0.00721652 0)
(0.100175 0.00782273 0)
(0.100555 0.00842096 0)
(0.100993 0.00900046 0)
(0.101484 0.00955052 0)
(0.102021 0.0100614 0)
(0.100004 -5.44118e-05 0)
(0.100024 -9.60027e-05 0)
(0.100055 -0.000115253 0)
(0.10009 -0.00010974 0)
(0.100125 -7.91073e-05 0)
(0.100154 -2.69697e-05 0)
(0.100174 3.90732e-05 0)
(0.10018 0.000109161 0)
(0.100173 0.000173727 0)
(0.100152 0.000225695 0)
(0.100118 0.000261545 0)
(0.100076 0.000281142 0)
(0.100028 0.000286751 0)
(0.0999769 0.000281792 0)
(0.0999254 0.000269776 0)
(0.0998753 0.000253648 0)
(0.0998279 0.000235514 0)
(0.099784 0.000216664 0)
(0.099744 0.000197739 0)
(0.0997078 0.00017895 0)
(0.0996755 0.00016026 0)
(0.099647 0.000141528 0)
(0.0996219 0.000122593 0)
(0.0996002 0.00010332 0)
(0.0995816 8.36154e-05 0)
(0.099566 6.34358e-05 0)
(0.0995531 4.27782e-05 0)
(0.0995428 2.16748e-05 0)
(0.0995349 1.87627e-07 0)
(0.0995293 -2.15966e-05 0)
(0.0995256 -4.35682e-05 0)
(0.0995237 -6.55917e-05 0)
(0.0995235 -8.75149e-05 0)
(0.0995246 -0.000109161 0)
(0.0995269 -0.00013033 0)
(0.09953 -0.000150795 0)
(0.0995338 -0.000170297 0)
(0.099538 -0.000188551 0)
(0.0995422 -0.000205236 0)
(0.0995462 -0.000219997 0)
(0.0995497 -0.000232444 0)
(0.0995523 -0.000242145 0)
(0.0995538 -0.000248632 0)
(0.0995539 -0.000251389 0)
(0.0995522 -0.000249859 0)
(0.0995484 -0.000243436 0)
(0.0995422 -0.000231467 0)
(0.0995334 -0.000213246 0)
(0.0995217 -0.000188012 0)
(0.0995068 -0.00015495 0)
(0.0994885 -0.000113187 0)
(0.0994668 -6.17869e-05 0)
(0.0994415 2.45089e-07 0)
(0.0994125 7.39562e-05 0)
(0.09938 0.000160466 0)
(0.0993441 0.000260958 0)
(0.0993051 0.000376671 0)
(0.0992635 0.000508893 0)
(0.0992197 0.000658955 0)
(0.0991747 0.000828215 0)
(0.0991294 0.00101804 0)
(0.0990851 0.00122977 0)
(0.0990433 0.0014647 0)
(0.099006 0.00172402 0)
(0.0989751 0.00200877 0)
(0.0989534 0.00231976 0)
(0.0989436 0.0026575 0)
(0.0989489 0.00302212 0)
(0.0989729 0.00341324 0)
(0.0990193 0.00382989 0)
(0.0990919 0.00427043 0)
(0.0991947 0.0047324 0)
(0.0993315 0.00521249 0)
(0.0995057 0.00570646 0)
(0.0997203 0.00620921 0)
(0.0999773 0.00671479 0)
(0.100278 0.00721658 0)
(0.100622 0.0077075 0)
(0.101008 0.00818041 0)
(0.101432 0.00862851 0)
(0.10189 0.00904596 0)
(0.100003 -6.05212e-05 0)
(0.100024 -0.000107387 0)
(0.100054 -0.000130035 0)
(0.100089 -0.000125879 0)
(0.100124 -9.43745e-05 0)
(0.100155 -3.91113e-05 0)
(0.100177 3.20378e-05 0)
(0.100188 0.000108633 0)
(0.100185 0.000180326 0)
(0.100169 0.000239225 0)
(0.100141 0.000281132 0)
(0.100103 0.000305476 0)
(0.100059 0.000314355 0)
(0.100011 0.000311243 0)
(0.0999621 0.000299861 0)
(0.0999137 0.000283426 0)
(0.0998675 0.000264325 0)
(0.0998242 0.000244088 0)
(0.0997844 0.000223545 0)
(0.0997481 0.000203038 0)
(0.0997154 0.000182615 0)
(0.0996861 0.000162186 0)
(0.0996601 0.000141614 0)
(0.0996371 0.000120776 0)
(0.099617 9.95868e-05 0)
(0.0995995 7.80032e-05 0)
(0.0995845 5.60263e-05 0)
(0.0995717 3.3694e-05 0)
(0.0995609 1.10759e-05 0)
(0.099552 -1.17306e-05 0)
(0.0995448 -3.46026e-05 0)
(0.099539 -5.73889e-05 0)
(0.0995344 -7.992e-05 0)
(0.0995307 -0.000102 0)
(0.0995278 -0.00012341 0)
(0.0995254 -0.0001439 0)
(0.0995233 -0.000163191 0)
(0.0995211 -0.000180974 0)
(0.0995187 -0.000196908 0)
(0.0995157 -0.000210617 0)
(0.0995118 -0.000221687 0)
(0.0995069 -0.00022967 0)
(0.0995006 -0.000234078 0)
(0.0994927 -0.000234382 0)
(0.0994829 -0.000230014 0)
(0.099471 -0.000220363 0)
(0.0994568 -0.000204773 0)
(0.0994401 -0.000182546 0)
(0.0994206 -0.00015294 0)
(0.0993985 -0.000115167 0)
(0.0993734 -6.83933e-05 0)
(0.0993455 -1.17468e-05 0)
(0.0993148 5.56768e-05 0)
(0.0992814 0.00013483 0)
(0.0992456 0.0002267 0)
(0.0992077 0.000332301 0)
(0.0991682 0.000452666 0)
(0.0991276 0.000588834 0)
(0.0990868 0.000741835 0)
(0.0990467 0.000912673 0)
(0.0990084 0.0011023 0)
(0.0989733 0.0013116 0)
(0.0989429 0.00154131 0)
(0.098919 0.00179204 0)
(0.0989035 0.00206419 0)
(0.0988989 0.00235788 0)
(0.0989074 0.00267295 0)
(0.0989316 0.00300883 0)
(0.0989743 0.00336453 0)
(0.0990382 0.00373858 0)
(0.0991261 0.00412896 0)
(0.0992406 0.00453308 0)
(0.0993839 0.0049478 0)
(0.0995582 0.00536941 0)
(0.0997647 0.0057937 0)
(0.100004 0.00621607 0)
(0.100277 0.00663164 0)
(0.100582 0.00703545 0)
(0.100918 0.00742269 0)
(0.101282 0.00778898 0)