/*--------------------------------*- C++ -*----------------------------------*\
| =========                 |                                                 |
| \\      /  F ield         | OpenFOAM: The Open Source CFD Toolbox           |
|  \\    /   O peration     | Version:  2106                                  |
|   \\  /    A nd           | Website:  www.openfoam.com                      |
|    \\/     M anipulation  |                                                 |
\*---------------------------------------------------------------------------*/
FoamFile
{
    version     2.0;
    format      ascii;
    arch        "LSB;label=32;scalar=64";
    class       surfaceScalarField;
    location    "0.8";
    object      phi;
}
// * * * * * * * * * * * * * * * * * * * * * * * * * * * * * * * * * * * * * //

dimensions      [1 0 -1 0 0 0 0];

oriented        oriented;

internalField   nonuniform List<scalar> 
23692
(
9.30736e-05
5.95819e-09
9.30561e-05
1.74791e-08
9.30194e-05
3.67195e-08
9.29563e-05
6.30937e-08
9.28632e-05
9.31168e-08
9.27416e-05
1.21611e-07
9.25976e-05
1.4402e-07
9.24395e-05
1.58083e-07
9.22754e-05
1.6412e-07
9.21112e-05
1.64195e-07
9.19502e-05
1.60947e-07
9.17936e-05
1.56638e-07
9.16408e-05
1.52746e-07
9.14909e-05
1.49954e-07
9.13425e-05
1.48367e-07
9.11947e-05
1.47796e-07
9.10468e-05
1.47942e-07
9.08983e-05
1.48531e-07
9.07489e-05
1.49365e-07
9.05986e-05
1.50312e-07
9.04473e-05
1.51316e-07
9.02949e-05
1.52349e-07
9.01415e-05
1.5342e-07
8.9987e-05
1.5454e-07
8.98312e-05
1.55731e-07
8.96742e-05
1.57012e-07
8.95158e-05
1.58404e-07
8.93559e-05
1.5992e-07
8.91943e-05
1.61573e-07
8.90309e-05
1.63373e-07
8.88656e-05
1.65327e-07
8.86982e-05
1.67443e-07
8.85284e-05
1.69723e-07
8.83563e-05
1.72173e-07
8.81815e-05
1.74795e-07
8.80039e-05
1.77593e-07
8.78233e-05
1.80572e-07
8.76396e-05
1.83736e-07
8.74525e-05
1.87094e-07
8.72618e-05
1.90656e-07
8.70674e-05
1.94431e-07
8.6869e-05
1.98437e-07
8.66663e-05
2.02692e-07
8.6459e-05
2.07218e-07
8.6247e-05
2.12042e-07
8.60298e-05
2.17198e-07
8.58071e-05
2.22721e-07
8.55784e-05
2.28658e-07
8.53434e-05
2.35059e-07
8.51014e-05
2.41988e-07
8.48519e-05
2.49512e-07
8.45941e-05
2.57717e-07
8.43274e-05
2.66698e-07
8.40509e-05
2.76571e-07
8.37634e-05
2.87467e-07
8.34639e-05
2.99547e-07
8.31508e-05
3.13e-07
8.28228e-05
3.28055e-07
8.24778e-05
3.44983e-07
8.21137e-05
3.64119e-07
8.17278e-05
3.85871e-07
8.13171e-05
4.10743e-07
8.08777e-05
4.39365e-07
8.04052e-05
4.72531e-07
7.98939e-05
5.11258e-07
7.93371e-05
5.56855e-07
7.8726e-05
6.11042e-07
7.80499e-05
6.76099e-07
7.72948e-05
7.55112e-07
7.64425e-05
8.5231e-07
7.54689e-05
9.736e-07
7.43415e-05
1.12738e-06
7.30157e-05
1.32579e-06
7.1429e-05
1.58672e-06
6.9492e-05
1.93694e-06
6.7075e-05
2.41707e-06
6.39859e-05
3.08909e-06
5.99372e-05
4.04866e-06
5.4483e-05
5.4542e-06
4.68847e-05
7.59829e-06
1.12575e-05
3.56273e-05
9.95932e-05
1.20927e-08
9.95748e-05
3.58809e-08
9.9536e-05
7.55512e-08
9.94691e-05
1.29992e-07
9.93702e-05
1.92039e-07
9.92408e-05
2.51006e-07
9.90873e-05
2.97457e-07
9.89187e-05
3.26685e-07
9.87435e-05
3.39313e-07
9.85681e-05
3.39596e-07
9.83961e-05
3.32965e-07
9.82287e-05
3.24108e-07
9.80653e-05
3.16081e-07
9.7905e-05
3.103e-07
9.77463e-05
3.07007e-07
9.75883e-05
3.05802e-07
9.74302e-05
3.06078e-07
9.72715e-05
3.07275e-07
9.71118e-05
3.08976e-07
9.69512e-05
3.10925e-07
9.67896e-05
3.12984e-07
9.66268e-05
3.15116e-07
9.64629e-05
3.17322e-07
9.62978e-05
3.19638e-07
9.61314e-05
3.22102e-07
9.59637e-05
3.24756e-07
9.57945e-05
3.27634e-07
9.56236e-05
3.30771e-07
9.5451e-05
3.34191e-07
9.52764e-05
3.37914e-07
9.50998e-05
3.41958e-07
9.49209e-05
3.46332e-07
9.47396e-05
3.51048e-07
9.45557e-05
3.56112e-07
9.43689e-05
3.61532e-07
9.41792e-05
3.67315e-07
9.39863e-05
3.73469e-07
9.379e-05
3.80009e-07
9.35902e-05
3.86945e-07
9.33865e-05
3.94299e-07
9.31789e-05
4.02096e-07
9.29669e-05
4.10366e-07
9.27505e-05
4.19148e-07
9.25292e-05
4.28487e-07
9.23028e-05
4.38441e-07
9.20709e-05
4.49074e-07
9.18332e-05
4.60464e-07
9.15891e-05
4.72703e-07
9.13383e-05
4.85898e-07
9.10801e-05
5.00171e-07
9.0814e-05
5.15669e-07
9.05391e-05
5.3256e-07
9.02548e-05
5.51041e-07
8.996e-05
5.71344e-07
8.96537e-05
5.93745e-07
8.93347e-05
6.18563e-07
8.90015e-05
6.46185e-07
8.86525e-05
6.77068e-07
8.82857e-05
7.11766e-07
8.78989e-05
7.5095e-07
8.74893e-05
7.95438e-07
8.70538e-05
8.46239e-07
8.65886e-05
9.0461e-07
8.6089e-05
9.72126e-07
8.55494e-05
1.05079e-06
8.49631e-05
1.14316e-06
8.43216e-05
1.25259e-06
8.36142e-05
1.38348e-06
8.28276e-05
1.54168e-06
8.19448e-05
1.73516e-06
8.09436e-05
1.97481e-06
7.97951e-05
2.2758e-06
7.84614e-05
2.65949e-06
7.6892e-05
3.15619e-06
7.50199e-05
3.80905e-06
7.27579e-05
4.67908e-06
6.99971e-05
5.84982e-06
6.66173e-05
7.42852e-06
6.25318e-05
9.53967e-06
5.78714e-05
1.22587e-05
1.51763e-05
5.39525e-05
0.00010657
1.8387e-08
0.00010655
5.5092e-08
0.00010651
1.16216e-07
0.000106439
2.00259e-07
0.000106335
2.96226e-07
0.000106199
3.87641e-07
0.000106036
4.59881e-07
0.000105857
5.05587e-07
0.000105671
5.25618e-07
0.000105484
5.26474e-07
0.000105301
5.16514e-07
0.000105122
5.02982e-07
0.000104947
4.90625e-07
0.000104776
4.81668e-07
0.000104606
4.76512e-07
0.000104437
4.74567e-07
0.000104269
4.74916e-07
0.000104099
4.76701e-07
0.000103929
4.79278e-07
0.000103758
4.82251e-07
0.000103585
4.85415e-07
0.000103412
4.88697e-07
0.000103237
4.92108e-07
0.000103061
4.95694e-07
0.000102883
4.99514e-07
0.000102704
5.03631e-07
0.000102524
5.08102e-07
0.000102342
5.12972e-07
0.000102158
5.18282e-07
0.000101972
5.24062e-07
0.000101783
5.30336e-07
0.000101592
5.37122e-07
0.000101399
5.44435e-07
0.000101203
5.52285e-07
0.000101004
5.60683e-07
0.000100801
5.69642e-07
0.000100596
5.79173e-07
0.000100386
5.89296e-07
0.000100173
6.00031e-07
9.99561e-05
6.11409e-07
9.97348e-05
6.23467e-07
9.95089e-05
6.36255e-07
9.92782e-05
6.49829e-07
9.90424e-05
6.64261e-07
9.88012e-05
6.79635e-07
9.85542e-05
6.96053e-07
9.83011e-05
7.13634e-07
9.80412e-05
7.32516e-07
9.77743e-05
7.52863e-07
9.74996e-05
7.74861e-07
9.72165e-05
7.98734e-07
9.69243e-05
8.24735e-07
9.66222e-05
8.53166e-07
9.63092e-05
8.84377e-07
9.59841e-05
9.1878e-07
9.56458e-05
9.56861e-07
9.52928e-05
9.99197e-07
9.49234e-05
1.04648e-06
9.45357e-05
1.09952e-06
9.41273e-05
1.15933e-06
9.36956e-05
1.22711e-06
9.32375e-05
1.30435e-06
9.27492e-05
1.39288e-06
9.22263e-05
1.49499e-06
9.16636e-05
1.61356e-06
9.10545e-05
1.75223e-06
9.03914e-05
1.9157e-06
8.96648e-05
2.11007e-06
8.88632e-05
2.34332e-06
8.79723e-05
2.62603e-06
8.69748e-05
2.97234e-06
8.58493e-05
3.40127e-06
8.45703e-05
3.9385e-06
8.3108e-05
4.61848e-06
8.14303e-05
5.48676e-06
7.95081e-05
6.60122e-06
7.73289e-05
8.02902e-06
7.4925e-05
9.83242e-06
7.24353e-05
1.20294e-05
7.0216e-05
1.44781e-05
1.65689e-05
6.88233e-05
0.000114035
2.48308e-08
0.000114015
7.49456e-08
0.000113973
1.58326e-07
0.0001139
2.73249e-07
0.000113791
4.04839e-07
0.000113648
5.30621e-07
0.000113477
6.30522e-07
0.000113289
6.94278e-07
0.000113091
7.22851e-07
0.000112893
7.24964e-07
0.000112697
7.11974e-07
0.000112507
6.93797e-07
0.00011232
6.76989e-07
0.000112137
6.6467e-07
0.000111956
6.57467e-07
0.000111776
6.54629e-07
0.000111596
6.5494e-07
0.000111416
6.57238e-07
0.000111234
6.60658e-07
0.000111052
6.64654e-07
0.000110868
6.68942e-07
0.000110684
6.73422e-07
0.000110498
6.78097e-07
0.00011031
6.83027e-07
0.000110122
6.88292e-07
0.000109931
6.93975e-07
0.000109739
7.00148e-07
0.000109545
7.06874e-07
0.000109349
7.14206e-07
0.000109151
7.22183e-07
0.000108951
7.30839e-07
0.000108748
7.40194e-07
0.000108542
7.5027e-07
0.000108333
7.61081e-07
0.000108121
7.72643e-07
0.000107906
7.84966e-07
0.000107687
7.98073e-07
0.000107464
8.11985e-07
0.000107237
8.26735e-07
0.000107006
8.42359e-07
0.000106771
8.58912e-07
0.000106531
8.76455e-07
0.000106286
8.9507e-07
0.000106035
9.14852e-07
0.000105779
9.35914e-07
0.000105516
9.58395e-07
0.000105248
9.82453e-07
0.000104972
1.00828e-06
0.000104689
1.03608e-06
0.000104397
1.06613e-06
0.000104097
1.0987e-06
0.000103788
1.13415e-06
0.000103468
1.17287e-06
0.000103137
1.21533e-06
0.000102794
1.26207e-06
0.000102437
1.31374e-06
0.000102065
1.3711e-06
0.000101677
1.43504e-06
0.00010127
1.50664e-06
0.000100842
1.58719e-06
0.000100391
1.67824e-06
9.99132e-05
1.78169e-06
9.94062e-05
1.89985e-06
9.88656e-05
2.03558e-06
9.82867e-05
2.19244e-06
9.76641e-05
2.37487e-06
9.69913e-05
2.58849e-06
9.6261e-05
2.84044e-06
9.54644e-05
3.13985e-06
9.4592e-05
3.49847e-06
9.36329e-05
3.93145e-06
9.25759e-05
4.45827e-06
9.14106e-05
5.10379e-06
9.013e-05
5.89905e-06
8.87355e-05
6.88121e-06
8.72458e-05
8.09093e-06
8.57109e-05
9.56395e-06
8.42323e-05
1.1311e-05
8.29852e-05
1.32766e-05
8.22028e-05
1.52604e-05
1.67991e-05
8.19726e-05
0.000122022
3.1394e-08
0.000122002
9.52171e-08
0.000121959
2.01375e-07
0.000121884
3.48121e-07
0.000121772
5.16747e-07
0.000121624
6.7871e-07
0.000121447
8.08253e-07
0.000121249
8.9193e-07
0.000121041
9.30573e-07
0.000120831
9.35016e-07
0.000120623
9.1961e-07
0.00012042
8.97027e-07
0.000120221
8.75743e-07
0.000120026
8.59901e-07
0.000119833
8.5043e-07
0.000119641
8.46483e-07
0.00011945
8.46571e-07
0.000119258
8.49253e-07
0.000119065
8.53431e-07
0.000118871
8.58412e-07
0.000118676
8.63823e-07
0.00011848
8.69528e-07
0.000118283
8.75519e-07
0.000118084
8.81869e-07
0.000117884
8.88671e-07
0.000117682
8.96025e-07
0.000117478
9.04019e-07
0.000117272
9.12732e-07
0.000117064
9.22226e-07
0.000116853
9.32549e-07
0.000116641
9.4374e-07
0.000116425
9.55831e-07
0.000116206
9.68841e-07
0.000115985
9.8279e-07
0.00011576
9.97694e-07
0.000115531
1.01357e-06
0.000115299
1.03045e-06
0.000115062
1.04835e-06
0.000114822
1.06731e-06
0.000114577
1.08739e-06
0.000114327
1.10865e-06
0.000114072
1.13116e-06
0.000113812
1.15504e-06
0.000113547
1.18039e-06
0.000113275
1.20737e-06
0.000112997
1.23614e-06
0.000112713
1.26691e-06
0.000112421
1.29991e-06
0.000112122
1.33541e-06
0.000111814
1.37372e-06
0.000111498
1.41522e-06
0.000111172
1.46031e-06
0.000110835
1.50951e-06
0.000110487
1.56338e-06
0.000110127
1.62258e-06
0.000109752
1.68791e-06
0.000109363
1.76026e-06
0.000108958
1.84074e-06
0.000108534
1.93061e-06
0.000108089
2.03141e-06
0.000107623
2.14496e-06
0.000107131
2.27346e-06
0.000106611
2.41956e-06
0.00010606
2.58651e-06
0.000105474
2.77824e-06
0.00010485
2.99962e-06
0.000104181
3.25663e-06
0.000103465
3.55669e-06
0.000102696
3.90897e-06
0.00010187
4.32487e-06
0.000100983
4.81838e-06
0.000100035
5.40653e-06
9.90287e-05
6.10958e-06
9.79773e-05
6.9505e-06
9.69052e-05
7.95327e-06
9.58578e-05
9.13836e-06
9.49083e-05
1.05134e-05
9.41634e-05
1.20559e-05
9.3754e-05
1.36859e-05
9.37861e-05
1.52284e-05
1.63853e-05
9.41998e-05
0.00013057
3.8033e-08
0.000130549
1.1566e-07
0.000130506
2.44766e-07
0.00013043
4.23839e-07
0.000130317
6.30552e-07
0.000130165
8.3034e-07
0.000129982
9.91591e-07
0.000129776
1.09737e-06
0.000129559
1.14806e-06
0.000129337
1.15635e-06
0.000129117
1.13952e-06
0.000128901
1.11302e-06
0.00012869
1.08738e-06
0.000128482
1.06788e-06
0.000128276
1.05589e-06
0.000128072
1.05056e-06
0.000127869
1.05017e-06
0.000127665
1.05303e-06
0.00012746
1.05783e-06
0.000127255
1.06371e-06
0.000127049
1.07021e-06
0.000126841
1.07715e-06
0.000126632
1.0845e-06
0.000126422
1.09235e-06
0.00012621
1.10078e-06
0.000125996
1.10991e-06
0.00012578
1.11986e-06
0.000125562
1.13069e-06
0.000125342
1.14249e-06
0.000125119
1.15532e-06
0.000124893
1.16921e-06
0.000124665
1.1842e-06
0.000124434
1.20032e-06
0.000124199
1.21758e-06
0.00012396
1.236e-06
0.000123718
1.25561e-06
0.000123472
1.27643e-06
0.000123222
1.2985e-06
0.000122968
1.32186e-06
0.000122709
1.34657e-06
0.000122445
1.37272e-06
0.000122175
1.40038e-06
0.000121901
1.4297e-06
0.00012162
1.4608e-06
0.000121334
1.49386e-06
0.000121041
1.52909e-06
0.000120741
1.56672e-06
0.000120434
1.60703e-06
0.000120119
1.65034e-06
0.000119796
1.69702e-06
0.000119463
1.74751e-06
0.000119121
1.8023e-06
0.000118769
1.86195e-06
0.000118405
1.92714e-06
0.000118029
1.99863e-06
0.00011764
2.07731e-06
0.000117236
2.16423e-06
0.000116816
2.26061e-06
0.000116379
2.36788e-06
0.000115922
2.48772e-06
0.000115445
2.62212e-06
0.000114945
2.77346e-06
0.00011442
2.94454e-06
0.000113868
3.13873e-06
0.000113286
3.36004e-06
0.000112672
3.61331e-06
0.000112025
3.9043e-06
0.000111341
4.23993e-06
0.000110622
4.62845e-06
0.000109867
5.07957e-06
0.000109081
5.60457e-06
0.000108271
6.21624e-06
0.000107453
6.92836e-06
0.000106649
7.75456e-06
0.000105896
8.70595e-06
0.000105248
9.78668e-06
0.000104774
1.09866e-05
0.00010456
1.22702e-05
0.000104684
1.35624e-05
0.000105176
1.47356e-05
1.56127e-05
0.000105949
0.000139716
4.46979e-08
0.000139696
1.36001e-07
0.000139653
2.87837e-07
0.000139577
4.99254e-07
0.000139463
7.44672e-07
0.00013931
9.83681e-07
0.000139123
1.17876e-06
0.000138911
1.30913e-06
0.000138685
1.37428e-06
0.000138453
1.38844e-06
0.000138221
1.37159e-06
0.000137992
1.34198e-06
0.000137767
1.31225e-06
0.000137546
1.28903e-06
0.000137327
1.27426e-06
0.000137111
1.2672e-06
0.000136895
1.26601e-06
0.000136679
1.26878e-06
0.000136463
1.27399e-06
0.000136246
1.28064e-06
0.000136028
1.28816e-06
0.000135809
1.29632e-06
0.000135588
1.30506e-06
0.000135366
1.31446e-06
0.000135142
1.32462e-06
0.000134917
1.33565e-06
0.000134689
1.34767e-06
0.000134459
1.36078e-06
0.000134226
1.37504e-06
0.000133991
1.39053e-06
0.000133753
1.40728e-06
0.000133512
1.42534e-06
0.000133267
1.44472e-06
0.000133019
1.46546e-06
0.000132768
1.48757e-06
0.000132512
1.51107e-06
0.000132253
1.536e-06
0.000131989
1.56239e-06
0.000131721
1.5903e-06
0.000131447
1.61978e-06
0.000131169
1.65095e-06
0.000130886
1.68389e-06
0.000130596
1.71876e-06
0.000130302
1.75571e-06
0.00013
1.79495e-06
0.000129693
1.8367e-06
0.000129378
1.88124e-06
0.000129057
1.92888e-06
0.000128727
1.97998e-06
0.000128389
2.03498e-06
0.000128042
2.09433e-06
0.000127686
2.15861e-06
0.000127319
2.22844e-06
0.000126942
2.30456e-06
0.000126553
2.3878e-06
0.000126151
2.47914e-06
0.000125735
2.57969e-06
0.000125305
2.69076e-06
0.000124859
2.81385e-06
0.000124396
2.9507e-06
0.000123915
3.10335e-06
0.000123414
3.27417e-06
0.000122893
3.46593e-06
0.00012235
3.68185e-06
0.000121784
3.92571e-06
0.000121196
4.20186e-06
0.000120585
4.51536e-06
0.000119953
4.872e-06
0.000119303
5.27833e-06
0.000118641
5.74162e-06
0.000117975
6.26966e-06
0.000117321
6.8704e-06
0.000116699
7.55117e-06
0.000116136
8.31738e-06
0.000115671
9.17035e-06
0.000115354
1.01041e-05
0.00011524
1.11007e-05
0.000115386
1.21244e-05
0.000115832
1.31164e-05
0.000116574
1.39927e-05
1.46522e-05
0.000117535
0.000149503
5.13367e-08
0.000149483
1.5597e-07
0.000149441
3.29932e-07
0.000149367
5.73201e-07
0.000149254
8.57442e-07
0.000149101
1.13679e-06
0.000148912
1.36777e-06
0.000148696
1.52546e-06
0.000148462
1.60794e-06
0.00014822
1.63047e-06
0.000147976
1.61545e-06
0.000147734
1.58383e-06
0.000147496
1.55051e-06
0.000147262
1.52358e-06
0.00014703
1.50577e-06
0.000146801
1.49661e-06
0.000146573
1.49423e-06
0.000146345
1.49656e-06
0.000146117
1.50192e-06
0.000145888
1.50916e-06
0.000145659
1.5176e-06
0.000145428
1.52694e-06
0.000145196
1.5371e-06
0.000144963
1.54812e-06
0.000144727
1.56009e-06
0.00014449
1.57314e-06
0.00014425
1.58737e-06
0.000144008
1.60289e-06
0.000143763
1.61977e-06
0.000143515
1.63807e-06
0.000143265
1.65785e-06
0.000143011
1.67913e-06
0.000142754
1.70194e-06
0.000142493
1.7263e-06
0.000142228
1.75224e-06
0.00014196
1.77977e-06
0.000141687
1.80893e-06
0.000141409
1.83975e-06
0.000141127
1.87231e-06
0.000140841
1.90666e-06
0.000140549
1.94292e-06
0.000140251
1.98119e-06
0.000139948
2.02165e-06
0.00013964
2.06447e-06
0.000139325
2.10986e-06
0.000139003
2.15808e-06
0.000138675
2.20944e-06
0.00013834
2.26427e-06
0.000137997
2.32297e-06
0.000137646
2.386e-06
0.000137286
2.45387e-06
0.000136918
2.52717e-06
0.000136539
2.60658e-06
0.000136151
2.69287e-06
0.000135752
2.78691e-06
0.000135341
2.88971e-06
0.000134919
3.0024e-06
0.000134483
3.12629e-06
0.000134034
3.26287e-06
0.000133571
3.41384e-06
0.000133093
3.58114e-06
0.0001326
3.76699e-06
0.000132092
3.97391e-06
0.00013157
4.20474e-06
0.000131033
4.46271e-06
0.000130483
4.75139e-06
0.000129924
5.07474e-06
0.000129359
5.43704e-06
0.000128794
5.84278e-06
0.000128239
6.29654e-06
0.000127706
6.80261e-06
0.000127212
7.36454e-06
0.000126779
7.98439e-06
0.000126435
8.66165e-06
0.000126213
9.39172e-06
0.000126153
1.01639e-05
0.000126295
1.09592e-05
0.000126671
1.17479e-05
0.0001273
1.24881e-05
0.000128165
1.31277e-05
1.36106e-05
0.000129206
0.000159976
5.7909e-08
0.000159956
1.75354e-07
0.000159916
3.70483e-07
0.000159844
6.44621e-07
0.000159734
9.67321e-07
0.000159583
1.28774e-06
0.000159395
1.55662e-06
0.000159176
1.74452e-06
0.000158936
1.84752e-06
0.000158685
1.88133e-06
0.00015843
1.87041e-06
0.000158176
1.83824e-06
0.000157924
1.80204e-06
0.000157676
1.77155e-06
0.000157431
1.75049e-06
0.000157189
1.73883e-06
0.000156949
1.73483e-06
0.000156709
1.73634e-06
0.000156469
1.74154e-06
0.000156229
1.74915e-06
0.000155989
1.75838e-06
0.000155747
1.76884e-06
0.000155503
1.78041e-06
0.000155258
1.79309e-06
0.000155011
1.80697e-06
0.000154762
1.82214e-06
0.000154511
1.83872e-06
0.000154257
1.85679e-06
0.000154001
1.87644e-06
0.000153741
1.89771e-06
0.000153478
1.92065e-06
0.000153212
1.9453e-06
0.000152942
1.97167e-06
0.000152669
1.99979e-06
0.000152391
2.02966e-06
0.00015211
2.06132e-06
0.000151824
2.09478e-06
0.000151533
2.13011e-06
0.000151238
2.16735e-06
0.000150939
2.20659e-06
0.000150633
2.24793e-06
0.000150323
2.29151e-06
0.000150007
2.33749e-06
0.000149686
2.38606e-06
0.000149358
2.43746e-06
0.000149024
2.49195e-06
0.000148684
2.54987e-06
0.000148337
2.61155e-06
0.000147982
2.67743e-06
0.00014762
2.74797e-06
0.00014725
2.82371e-06
0.000146872
2.90525e-06
0.000146485
2.99328e-06
0.00014609
3.08857e-06
0.000145685
3.19198e-06
0.00014527
3.3045e-06
0.000144845
3.42722e-06
0.00014441
3.56139e-06
0.000143964
3.70838e-06
0.000143509
3.86975e-06
0.000143042
4.04721e-06
0.000142567
4.24268e-06
0.000142082
4.45825e-06
0.000141591
4.69621e-06
0.000141095
4.95902e-06
0.000140597
5.24928e-06
0.000140102
5.56967e-06
0.000139616
5.92283e-06
0.000139148
6.31124e-06
0.000138707
6.73695e-06
0.000138309
7.20131e-06
0.000137969
7.7045e-06
0.000137708
8.245e-06
0.000137551
8.81881e-06
0.000137524
9.41864e-06
0.000137655
1.00329e-05
0.000137969
1.0645e-05
0.000138485
1.12324e-05
0.000139205
1.17674e-05
0.000140114
1.22188e-05
1.2556e-05
0.000141169
0.000171182
6.43972e-08
0.000171163
1.93996e-07
0.000171124
4.09078e-07
0.000171056
7.12701e-07
0.000170951
1.07303e-06
0.000170803
1.4349e-06
0.000170617
1.74345e-06
0.000170397
1.96444e-06
0.000170153
2.09135e-06
0.000169895
2.13969e-06
0.000169629
2.13547e-06
0.000169363
2.10453e-06
0.000169099
2.06639e-06
0.000168838
2.03265e-06
0.00016858
2.00821e-06
0.000168325
1.99372e-06
0.000168072
1.98767e-06
0.000167821
1.98795e-06
0.00016757
1.99265e-06
0.000167318
2.00037e-06
0.000167067
2.01022e-06
0.000166814
2.02173e-06
0.000166559
2.0347e-06
0.000166303
2.04908e-06
0.000166045
2.06494e-06
0.000165785
2.08234e-06
0.000165523
2.10138e-06
0.000165257
2.12215e-06
0.000164989
2.14469e-06
0.000164718
2.16907e-06
0.000164443
2.19531e-06
0.000164165
2.22344e-06
0.000163883
2.25347e-06
0.000163597
2.28542e-06
0.000163308
2.31929e-06
0.000163014
2.35511e-06
0.000162716
2.39291e-06
0.000162413
2.43272e-06
0.000162106
2.47461e-06
0.000161794
2.51867e-06
0.000161477
2.56499e-06
0.000161155
2.61372e-06
0.000160827
2.66502e-06
0.000160494
2.7191e-06
0.000160155
2.77619e-06
0.000159811
2.83658e-06
0.00015946
2.90058e-06
0.000159103
2.96857e-06
0.000158739
3.04095e-06
0.000158369
3.1182e-06
0.000157992
3.20084e-06
0.000157608
3.28947e-06
0.000157216
3.38475e-06
0.000156817
3.48741e-06
0.000156411
3.59827e-06
0.000155997
3.71823e-06
0.000155576
3.84828e-06
0.000155148
3.98953e-06
0.000154713
4.14316e-06
0.000154273
4.31047e-06
0.000153827
4.49286e-06
0.000153378
4.69183e-06
0.000152927
4.90893e-06
0.000152478
5.14577e-06
0.000152033
5.40398e-06
0.000151597
5.68511e-06
0.000151176
5.99058e-06
0.000150777
6.32153e-06
0.00015041
6.67867e-06
0.000150085
7.0621e-06
0.000149815
7.47101e-06
0.000149616
7.90344e-06
0.000149505
8.35583e-06
0.000149501
8.82275e-06
0.000149623
9.29643e-06
0.00014989
9.76649e-06
0.000150315
1.02198e-05
0.000150907
1.06405e-05
0.000151663
1.10111e-05
0.000152569
1.13133e-05
1.15305e-05
0.000153594
0.000183173
7.08075e-08
0.000183155
2.11864e-07
0.000183118
4.45529e-07
0.000183054
7.76988e-07
0.000182953
1.17376e-06
0.000182811
1.57705e-06
0.000182628
1.92672e-06
0.000182409
2.18353e-06
0.000182162
2.33774e-06
0.000181898
2.404e-06
0.000181624
2.40933e-06
0.000181347
2.38164e-06
0.000181071
2.34277e-06
0.000180797
2.30627e-06
0.000180527
2.27849e-06
0.00018026
2.26089e-06
0.000179995
2.2524e-06
0.000179732
2.25106e-06
0.00017947
2.25492e-06
0.000179207
2.2625e-06
0.000178945
2.2728e-06
0.000178681
2.28526e-06
0.000178416
2.2996e-06
0.00017815
2.31571e-06
0.000177881
2.3336e-06
0.00017761
2.35332e-06
0.000177337
2.37493e-06
0.00017706
2.39849e-06
0.000176781
2.42405e-06
0.000176498
2.45163e-06
0.000176212
2.48125e-06
0.000175923
2.51294e-06
0.00017563
2.54669e-06
0.000175333
2.5825e-06
0.000175032
2.62038e-06
0.000174726
2.66034e-06
0.000174417
2.7024e-06
0.000174103
2.74661e-06
0.000173785
2.79301e-06
0.000173462
2.8417e-06
0.000173134
2.89277e-06
0.000172801
2.94636e-06
0.000172463
3.00263e-06
0.000172121
3.0618e-06
0.000171773
3.12409e-06
0.00017142
3.18978e-06
0.000171061
3.25917e-06
0.000170697
3.33263e-06
0.000170327
3.41055e-06
0.000169952
3.49338e-06
0.000169571
3.58162e-06
0.000169185
3.67581e-06
0.000168793
3.77655e-06
0.000168396
3.88451e-06
0.000167994
4.0004e-06
0.000167587
4.12499e-06
0.000167176
4.25912e-06
0.000166762
4.40368e-06
0.000166346
4.55961e-06
0.000165928
4.72789e-06
0.000165512
4.90952e-06
0.000165098
5.10551e-06
0.00016469
5.31684e-06
0.000164291
5.54443e-06
0.000163906
5.78907e-06
0.00016354
6.05136e-06
0.000163199
6.33162e-06
0.000162891
6.62978e-06
0.000162624
6.94525e-06
0.00016241
7.27679e-06
0.000162258
7.62229e-06
0.000162183
7.97869e-06
0.000162197
8.34172e-06
0.000162314
8.70581e-06
0.000162547
9.064e-06
0.000162905
9.4079e-06
0.000163397
9.72788e-06
0.000164024
1.00134e-05
0.000164782
1.02535e-05
0.000165657
1.0438e-05
1.0558e-05
0.00016663
0.000196003
7.7184e-08
0.000195986
2.2903e-07
0.000195952
4.79908e-07
0.000195891
8.37435e-07
0.000195796
1.2692e-06
0.00019566
1.71354e-06
0.000195481
2.1054e-06
0.000195264
2.40041e-06
0.000195017
2.58512e-06
0.000194748
2.67263e-06
0.000194467
2.69043e-06
0.00019418
2.66821e-06
0.000193893
2.63002e-06
0.000193608
2.59149e-06
0.000193326
2.56054e-06
0.000193047
2.53972e-06
0.000192771
2.52851e-06
0.000192497
2.52521e-06
0.000192224
2.52793e-06
0.000191951
2.53512e-06
0.000191678
2.5457e-06
0.000191404
2.55901e-06
0.000191129
2.57467e-06
0.000190853
2.59251e-06
0.000190574
2.61248e-06
0.000190292
2.63458e-06
0.000190009
2.65883e-06
0.000189722
2.68527e-06
0.000189432
2.7139e-06
0.000189139
2.74474e-06
0.000188842
2.7778e-06
0.000188542
2.81306e-06
0.000188238
2.85051e-06
0.000187931
2.89014e-06
0.000187619
2.93195e-06
0.000187303
2.97593e-06
0.000186984
3.0221e-06
0.00018666
3.07049e-06
0.000186332
3.12115e-06
0.000185999
3.17415e-06
0.000185662
3.22959e-06
0.000185321
3.2876e-06
0.000184976
3.34832e-06
0.000184625
3.41196e-06
0.000184271
3.47873e-06
0.000183912
3.54889e-06
0.000183548
3.62272e-06
0.00018318
3.70055e-06
0.000182808
3.78274e-06
0.000182432
3.8697e-06
0.000182051
3.96186e-06
0.000181668
4.05969e-06
0.00018128
4.1637e-06
0.00018089
4.27445e-06
0.000180498
4.3925e-06
0.000180105
4.51847e-06
0.000179711
4.65299e-06
0.000179318
4.79669e-06
0.000178927
4.95022e-06
0.000178541
5.11421e-06
0.000178161
5.28923e-06
0.000177791
5.47582e-06
0.000177433
5.6744e-06
0.000177093
5.88523e-06
0.000176773
6.1084e-06
0.000176481
6.34373e-06
0.000176222
6.59072e-06
0.000176003
6.84844e-06
0.000175833
7.11548e-06
0.00017572
7.38986e-06
0.000175673
7.66892e-06
0.000175703
7.9493e-06
0.000175817
8.22684e-06
0.000176027
8.49662e-06
0.000176338
8.75299e-06
0.000176756
8.98967e-06
0.000177284
9.2e-06
0.00017792
9.37719e-06
0.000178659
9.51473e-06
0.00017949
9.60693e-06
9.64937e-06
0.000180398
0.000209733
8.35868e-08
0.000209716
2.45663e-07
0.000209684
5.12504e-07
0.000209627
8.94392e-07
0.000209536
1.35961e-06
0.000209406
1.84432e-06
0.000209232
2.279e-06
0.000209018
2.61412e-06
0.000208771
2.83212e-06
0.0002085
2.94396e-06
0.000208213
2.9771e-06
0.000207919
2.96262e-06
0.000207622
2.9267e-06
0.000207327
2.88705e-06
0.000207034
2.85336e-06
0.000206744
2.82936e-06
0.000206457
2.81529e-06
0.000206173
2.8098e-06
0.00020589
2.81113e-06
0.000205607
2.81773e-06
0.000205324
2.82844e-06
0.000205041
2.84249e-06
0.000204756
2.85941e-06
0.00020447
2.87897e-06
0.000204181
2.90102e-06
0.00020389
2.92553e-06
0.000203597
2.95245e-06
0.0002033
2.98179e-06
0.000203
3.01351e-06
0.000202697
3.04762e-06
0.000202391
3.08407e-06
0.000202081
3.12284e-06
0.000201768
3.16391e-06
0.000201451
3.20723e-06
0.00020113
3.25279e-06
0.000200805
3.30057e-06
0.000200477
3.35057e-06
0.000200145
3.40281e-06
0.000199809
3.45732e-06
0.000199469
3.51416e-06
0.000199125
3.57343e-06
0.000198777
3.63522e-06
0.000198426
3.69967e-06
0.000198071
3.76695e-06
0.000197712
3.83725e-06
0.00019735
3.9108e-06
0.000196985
3.98784e-06
0.000196617
4.06865e-06
0.000196246
4.15354e-06
0.000195873
4.24283e-06
0.000195498
4.33689e-06
0.000195122
4.43609e-06
0.000194745
4.54082e-06
0.000194368
4.65148e-06
0.000193992
4.76849e-06
0.000193618
4.89226e-06
0.000193248
5.02318e-06
0.000192883
5.16164e-06
0.000192525
5.30796e-06
0.000192177
5.46242e-06
0.000191841
5.62522e-06
0.00019152
5.79642e-06
0.000191218
5.97598e-06
0.00019094
6.16364e-06
0.00019069
6.35895e-06
0.000190472
6.56116e-06
0.000190294
6.76925e-06
0.00019016
6.98181e-06
0.000190079
7.19703e-06
0.000190056
7.4127e-06
0.000190099
7.62612e-06
0.000190214
7.83414e-06
0.000190407
8.0332e-06
0.000190685
8.21932e-06
0.000191049
8.38826e-06
0.000191503
8.5356e-06
0.000192046
8.65696e-06
0.000192676
8.74815e-06
0.000193385
8.80547e-06
0.000194166
8.8259e-06
8.80739e-06
0.000195008
0.000224424
9.00901e-08
0.000224408
2.62002e-07
0.000224376
5.43775e-07
0.000224322
9.48501e-07
0.000224236
1.44566e-06
0.000224111
1.96985e-06
0.000223942
2.44752e-06
0.000223732
2.82411e-06
0.000223487
3.07765e-06
0.000223214
3.21652e-06
0.000222924
3.26762e-06
0.000222623
3.26314e-06
0.000222319
3.23116e-06
0.000222014
3.19151e-06
0.000221712
3.15568e-06
0.000221413
3.12876e-06
0.000221116
3.11185e-06
0.000220822
3.10407e-06
0.000220529
3.10387e-06
0.000220237
3.10972e-06
0.000219945
3.12042e-06
0.000219652
3.13511e-06
0.000219359
3.15324e-06
0.000219063
3.17446e-06
0.000218766
3.19858e-06
0.000218466
3.22546e-06
0.000218163
3.25503e-06
0.000217858
3.28723e-06
0.000217549
3.322e-06
0.000217237
3.35928e-06
0.000216922
3.39902e-06
0.000216604
3.44115e-06
0.000216282
3.48563e-06
0.000215957
3.5324e-06
0.000215629
3.58141e-06
0.000215297
3.63264e-06
0.000214961
3.68605e-06
0.000214622
3.74165e-06
0.00021428
3.79946e-06
0.000213935
3.85951e-06
0.000213586
3.92187e-06
0.000213235
3.98661e-06
0.000212881
4.05385e-06
0.000212524
4.12371e-06
0.000212165
4.19636e-06
0.000211804
4.27195e-06
0.000211441
4.3507e-06
0.000211077
4.43282e-06
0.000210712
4.51853e-06
0.000210346
4.60809e-06
0.000209982
4.70173e-06
0.000209618
4.79972e-06
0.000209256
4.90232e-06
0.000208898
5.00977e-06
0.000208544
5.1223e-06
0.000208196
5.24012e-06
0.000207856
5.3634e-06
0.000207526
5.49225e-06
0.000207207
5.62671e-06
0.000206903
5.76675e-06
0.000206616
5.91222e-06
0.000206349
6.06285e-06
0.000206107
6.21821e-06
0.000205893
6.37769e-06
0.000205711
6.54046e-06
0.000205567
6.70548e-06
0.000205465
6.87145e-06
0.00020541
7.0368e-06
0.000205407
7.19968e-06
0.000205462
7.35794e-06
0.000205579
7.5092e-06
0.000205762
7.6508e-06
0.000206015
7.77992e-06
0.000206341
7.89361e-06
0.00020674
7.98888e-06
0.000207213
8.0628e-06
0.000207758
8.11263e-06
0.00020837
8.13597e-06
0.000209044
8.13082e-06
0.000209775
8.09574e-06
8.02995e-06
0.000210552
0.000240144
9.67591e-08
0.000240128
2.78295e-07
0.000240097
5.74242e-07
0.000240045
1.00056e-06
0.000239963
1.52826e-06
0.000239842
2.09092e-06
0.000239678
2.61139e-06
0.000239472
3.03024e-06
0.000239228
3.32096e-06
0.000238956
3.48901e-06
0.000238663
3.56038e-06
0.000238358
3.56799e-06
0.000238048
3.54165e-06
0.000237736
3.50323e-06
0.000237426
3.46607e-06
0.000237118
3.43668e-06
0.000236812
3.41713e-06
0.000236509
3.4071e-06
0.000236208
3.40531e-06
0.000235907
3.41033e-06
0.000235607
3.42093e-06
0.000235306
3.43617e-06
0.000235004
3.45542e-06
0.0002347
3.47824e-06
0.000234394
3.50434e-06
0.000234086
3.53353e-06
0.000233775
3.56565e-06
0.000233462
3.6006e-06
0.000233146
3.63826e-06
0.000232827
3.67854e-06
0.000232504
3.72135e-06
0.000232179
3.76658e-06
0.00023185
3.81416e-06
0.000231519
3.86401e-06
0.000231184
3.91605e-06
0.000230846
3.97022e-06
0.000230506
4.02648e-06
0.000230163
4.0848e-06
0.000229817
4.14517e-06
0.000229469
4.2076e-06
0.000229119
4.27212e-06
0.000228767
4.33878e-06
0.000228413
4.40765e-06
0.000228058
4.47881e-06
0.000227702
4.55236e-06
0.000227345
4.62843e-06
0.000226989
4.70714e-06
0.000226633
4.78863e-06
0.000226278
4.87304e-06
0.000225926
4.96052e-06
0.000225577
5.0512e-06
0.000225231
5.14521e-06
0.000224891
5.24267e-06
0.000224557
5.34366e-06
0.000224231
5.44823e-06
0.000223915
5.55639e-06
0.00022361
5.66809e-06
0.000223319
5.78323e-06
0.000223044
5.90161e-06
0.000222788
6.02294e-06
0.000222553
6.14682e-06
0.000222343
6.27273e-06
0.000222162
6.39999e-06
0.000222011
6.5278e-06
0.000221897
6.65515e-06
0.000221821
6.7809e-06
0.000221789
6.9037e-06
0.000221804
7.02202e-06
0.000221869
7.1342e-06
0.000221989
7.23839e-06
0.000222165
7.33264e-06
0.000222401
7.4149e-06
0.000222698
7.48311e-06
0.000223057
7.53522e-06
0.000223476
7.56925e-06
0.000223956
7.58341e-06
0.000224492
7.57613e-06
0.000225082
7.54613e-06
0.00022572
7.49249e-06
0.000226401
7.41467e-06
7.31255e-06
0.000227119
0.000256965
1.03656e-07
0.000256949
2.94769e-07
0.000256919
6.04406e-07
0.000256868
1.05137e-06
0.000256788
1.60842e-06
0.00025667
2.20849e-06
0.00025651
2.77125e-06
0.000256308