/*--------------------------------*- C++ -*----------------------------------*\
| =========                 |                                                 |
| \\      /  F ield         | OpenFOAM: The Open Source CFD Toolbox           |
|  \\    /   O peration     | Version:  2106                                  |
|   \\  /    A nd           | Website:  www.openfoam.com                      |
|    \\/     M anipulation  |                                                 |
\*---------------------------------------------------------------------------*/
FoamFile
{
    version     2.0;
    format      ascii;
    arch        "LSB;label=32;scalar=64";
    class       surfaceScalarField;
    location    "0.8";
    object      phi;
}
// * * * * * * * * * * * * * * * * * * * * * * * * * * * * * * * * * * * * * //

dimensions      [1 0 -1 0 0 0 0];

oriented        oriented;

internalField   nonuniform List<scalar> 
23692
(
9.30868e-05
-7.18424e-09
9.30926e-05
-5.7484e-09
9.30868e-05
5.89032e-09
9.30601e-05
2.68453e-08
9.30073e-05
5.29281e-08
9.29291e-05
7.84569e-08
9.28309e-05
9.84979e-08
9.27207e-05
1.10523e-07
9.26065e-05
1.14658e-07
9.24941e-05
1.12847e-07
9.2387e-05
1.07642e-07
9.22864e-05
1.01274e-07
9.21919e-05
9.51917e-08
9.21027e-05
9.00751e-08
9.20176e-05
8.60297e-08
9.19358e-05
8.28647e-08
9.18566e-05
8.02894e-08
9.17799e-05
7.80268e-08
9.17054e-05
7.58702e-08
9.16333e-05
7.36868e-08
9.15636e-05
7.1402e-08
9.14964e-05
6.89869e-08
9.1432e-05
6.64298e-08
9.13704e-05
6.37356e-08
9.13118e-05
6.09098e-08
9.12562e-05
5.79662e-08
9.1204e-05
5.49113e-08
9.1155e-05
5.17559e-08
9.11095e-05
4.85103e-08
9.10674e-05
4.51806e-08
9.10289e-05
4.17806e-08
9.09941e-05
3.83234e-08
9.09629e-05
3.48263e-08
9.09354e-05
3.13085e-08
9.09116e-05
2.77944e-08
9.08915e-05
2.43111e-08
9.08749e-05
2.08911e-08
9.08618e-05
1.75686e-08
9.0852e-05
1.4385e-08
9.08454e-05
1.13817e-08
9.08417e-05
8.60766e-09
9.08407e-05
6.11166e-09
9.08419e-05
3.94855e-09
9.08451e-05
2.17566e-09
9.08497e-05
8.55057e-10
9.08552e-05
5.30113e-11
9.0861e-05
-1.62556e-10
9.08665e-05
2.8479e-10
9.08709e-05
1.47604e-09
9.08734e-05
3.49855e-09
9.0873e-05
6.45172e-09
9.08687e-05
1.04437e-08
9.08593e-05
1.55968e-08
9.08435e-05
2.20492e-08
9.08199e-05
2.99628e-08
9.07867e-05
3.95211e-08
9.07422e-05
5.09438e-08
9.06842e-05
6.44895e-08
9.06102e-05
8.04692e-08
9.05175e-05
9.92554e-08
9.04027e-05
1.21308e-07
9.02621e-05
1.47192e-07
9.00911e-05
1.77612e-07
8.98842e-05
2.13453e-07
8.9635e-05
2.55849e-07
8.93353e-05
3.06261e-07
8.89752e-05
3.666e-07
8.85424e-05
4.39412e-07
8.80208e-05
5.28132e-07
8.73898e-05
6.37485e-07
8.66222e-05
7.7409e-07
8.56813e-05
9.47408e-07
8.45165e-05
1.17123e-06
8.30568e-05
1.46609e-06
8.12e-05
1.86319e-06
7.87956e-05
2.41069e-06
7.5618e-05
3.18384e-06
7.13224e-05
4.30177e-06
6.53617e-05
5.96687e-06
5.6807e-05
8.56087e-06
1.31009e-05
4.37121e-05
9.96071e-05
-1.49407e-08
9.96136e-05
-1.21699e-08
9.96079e-05
1.17351e-08
9.95799e-05
5.49733e-08
9.95241e-05
1.08887e-07
9.94411e-05
1.61728e-07
9.93366e-05
2.03294e-07
9.92192e-05
2.28315e-07
9.90973e-05
2.3702e-07
9.89773e-05
2.3341e-07
9.88627e-05
2.22753e-07
9.87551e-05
2.09648e-07
9.86539e-05
1.97106e-07
9.85584e-05
1.8653e-07
9.84672e-05
1.78163e-07
9.83796e-05
1.71613e-07
9.82948e-05
1.66276e-07
9.82126e-05
1.61589e-07
9.81329e-05
1.57126e-07
9.80556e-05
1.52612e-07
9.79809e-05
1.47898e-07
9.79089e-05
1.42913e-07
9.78399e-05
1.37642e-07
9.77738e-05
1.3209e-07
9.77109e-05
1.26275e-07
9.76513e-05
1.20216e-07
9.75951e-05
1.13933e-07
9.75424e-05
1.07445e-07
9.74933e-05
1.0077e-07
9.74479e-05
9.39294e-08
9.74062e-05
8.69455e-08
9.73684e-05
7.98471e-08
9.73345e-05
7.26693e-08
9.73044e-05
6.54526e-08
9.72783e-05
5.82474e-08
9.72559e-05
5.11087e-08
9.72373e-05
4.41025e-08
9.72223e-05
3.73034e-08
9.72109e-05
3.07914e-08
9.72027e-05
2.46583e-08
9.71976e-05
1.89975e-08
9.71952e-05
1.39153e-08
9.71952e-05
9.52305e-09
9.71971e-05
5.94017e-09
9.72005e-05
3.29124e-09
9.72048e-05
1.71208e-09
9.72094e-05
1.34805e-09
9.72135e-05
2.34992e-09
9.72164e-05
4.88651e-09
9.72171e-05
9.13997e-09
9.72147e-05
1.53102e-08
9.72081e-05
2.36204e-08
9.7196e-05
3.43193e-08
9.71771e-05
4.76918e-08
9.71498e-05
6.40636e-08
9.71123e-05
8.38131e-08
9.70627e-05
1.07384e-07
9.69989e-05
1.35301e-07
9.69181e-05
1.68191e-07
9.68175e-05
2.06811e-07
9.66938e-05
2.52083e-07
9.65428e-05
3.05137e-07
9.63601e-05
3.6738e-07
9.614e-05
4.40575e-07
9.5876e-05
5.26958e-07
9.55599e-05
6.29397e-07
9.51819e-05
7.51618e-07
9.47298e-05
8.98527e-07
9.41882e-05
1.07668e-06
9.35378e-05
1.29495e-06
9.27532e-05
1.56558e-06
9.18019e-05
1.90567e-06
9.06405e-05
2.33945e-06
8.92117e-05
2.9017e-06
8.7439e-05
3.64272e-06
8.52214e-05
4.63506e-06
8.24309e-05
5.98101e-06
7.89217e-05
7.8176e-06
7.45799e-05
1.03153e-05
6.95384e-05
1.36089e-05
1.72858e-05
6.536e-05
0.000106584
-2.33234e-08
0.000106592
-1.94898e-08
0.000106586
1.71718e-08
0.000106558
8.3826e-08
0.000106499
1.67184e-07
0.000106412
2.49116e-07
0.000106302
3.13807e-07
0.000106178
3.53017e-07
0.000106048
3.66997e-07
0.000105921
3.61847e-07
0.000105798
3.45677e-07
0.000105683
3.25588e-07
0.000105575
3.06264e-07
0.000105472
2.89907e-07
0.000105375
2.76919e-07
0.000105281
2.66722e-07
0.00010519
2.58405e-07
0.000105102
2.51103e-07
0.000105016
2.44161e-07
0.000104934
2.37157e-07
0.000104854
2.29856e-07
0.000104776
2.22155e-07
0.000104702
2.1402e-07
0.000104631
2.05462e-07
0.000104564
1.96506e-07
0.0001045
1.87183e-07
0.000104439
1.77523e-07
0.000104382
1.67553e-07
0.000104329
1.57306e-07
0.00010428
1.46808e-07
0.000104234
1.361e-07
0.000104193
1.25224e-07
0.000104156
1.14234e-07
0.000104122
1.03196e-07
0.000104093
9.2181e-08
0.000104067
8.12816e-08
0.000104046
7.05949e-08
0.000104028
6.0238e-08
0.000104014
5.03356e-08
0.000104003
4.10252e-08
0.000103995
3.24559e-08
0.00010399
2.4788e-08
0.000103987
1.81939e-08
0.000103986
1.28555e-08
0.000103987
8.96971e-09
0.000103988
6.74067e-09
0.00010399
6.39102e-09
0.000103991
8.15693e-09
0.00010399
1.22944e-08
0.000103987
1.90819e-08
0.00010398
2.88264e-08
0.000103969
4.18667e-08
0.000103952
5.8584e-08
0.000103927
7.9409e-08
0.000103894
1.04836e-07
0.000103849
1.35439e-07
0.000103792
1.71884e-07
0.00010372
2.14962e-07
0.00010363
2.6561e-07
0.000103519
3.24955e-07
0.000103385
3.94365e-07
0.000103222
4.75507e-07
0.000103026
5.70443e-07
0.000102793
6.81737e-07
0.000102514
8.12611e-07
0.000102184
9.67158e-07
0.000101793
1.15063e-06
0.000101329
1.36984e-06
0.000100779
1.63372e-06
0.000100128
1.95413e-06
9.93537e-05
2.34694e-06
9.84332e-05
2.83362e-06
9.73366e-05
3.44333e-06
9.603e-05
4.21567e-06
9.44761e-05
5.20387e-06
9.2641e-05
6.47736e-06
9.05089e-05
8.12033e-06
8.81148e-05
1.02188e-05
8.56183e-05
1.28189e-05
8.34395e-05
1.57947e-05
1.84761e-05
8.22561e-05
0.00011405
-3.2415e-08
0.000114059
-2.79436e-08
0.000114054
2.17115e-08
0.000114026
1.12633e-07
0.000113966
2.26851e-07
0.000113876
3.39596e-07
0.000113761
4.2914e-07
0.00011363
4.83997e-07
0.000113494
5.04287e-07
0.000113358
4.98181e-07
0.000113228
4.76693e-07
0.000113104
4.49545e-07
0.000112988
4.23199e-07
0.000112878
4.00748e-07
0.000112774
3.82818e-07
0.000112673
3.68677e-07
0.000112576
3.5711e-07
0.000112481
3.46958e-07
0.00011239
3.37331e-07
0.000112301
3.27655e-07
0.000112216
3.17603e-07
0.000112133
3.07028e-07
0.000112054
2.95886e-07
0.000111978
2.84183e-07
0.000111905
2.71954e-07
0.000111836
2.59238e-07
0.00011177
2.46079e-07
0.000111709
2.32514e-07
0.000111651
2.18581e-07
0.000111598
2.04326e-07
0.000111548
1.89799e-07
0.000111502
1.75061e-07
0.000111461
1.60185e-07
0.000111424
1.45261e-07
0.00011139
1.30392e-07
0.000111361
1.15696e-07
0.000111335
1.01315e-07
0.000111314
8.74033e-08
0.000111296
7.41341e-08
0.000111281
6.16945e-08
0.000111269
5.02877e-08
0.00011126
4.01336e-08
0.000111253
3.14655e-08
0.000111248
2.45342e-08
0.000111244
1.96037e-08
0.00011124
1.69562e-08
0.000111237
1.68907e-08
0.000111232
1.97291e-08
0.000111226
2.58177e-08
0.000111217
3.55343e-08
0.000111204
4.9291e-08
0.000111186
6.75454e-08
0.000111161
9.08074e-08
0.000111128
1.19655e-07
0.000111086
1.54748e-07
0.000111033
1.96843e-07
0.000110966
2.46825e-07
0.000110883
3.05732e-07
0.000110781
3.7479e-07
0.000110659
4.55466e-07
0.000110512
5.49522e-07
0.000110336
6.59098e-07
0.000110128
7.86805e-07
0.000109882
9.35863e-07
0.000109592
1.11027e-06
0.000109253
1.31502e-06
0.000108855
1.55643e-06
0.00010839
1.8425e-06
0.000107848
2.18349e-06
0.000107218
2.59259e-06
0.000106486
3.08685e-06
0.000105639
3.68831e-06
0.000104665
4.42528e-06
0.000103555
5.33356e-06
0.00010231
6.45693e-06
0.00010095
7.84517e-06
9.95316e-05
9.54612e-06
9.8173e-05
1.15849e-05
9.70809e-05
1.39185e-05
9.65397e-05
1.63433e-05
1.83446e-05
9.66786e-05
0.000122039
-4.23157e-08
0.000122049
-3.78278e-08
0.000122046
2.47372e-08
0.000122018
1.40427e-07
0.000121959
2.86624e-07
0.000121867
4.318e-07
0.000121748
5.48033e-07
0.000121613
6.20302e-07
0.000121469
6.48342e-07
0.000121326
6.42268e-07
0.000121187
6.1599e-07
0.000121055
5.81925e-07
0.000120931
5.48429e-07
0.000120813
5.19604e-07
0.000120701
4.96386e-07
0.000120593
4.77946e-07
0.000120489
4.62807e-07
0.000120388
4.49514e-07
0.00012029
4.36955e-07
0.000120196
4.24389e-07
0.000120104
4.114e-07
0.000120016
3.97788e-07
0.000119931
3.8349e-07
0.000119849
3.68512e-07
0.000119771
3.52893e-07
0.000119697
3.36678e-07
0.000119627
3.19923e-07
0.00011956
3.02676e-07
0.000119498
2.84988e-07
0.000119439
2.66917e-07
0.000119385
2.48525e-07
0.000119334
2.29895e-07
0.000119288
2.11121e-07
0.000119246
1.92318e-07
0.000119208
1.73616e-07
0.000119174
1.55173e-07
0.000119144
1.37166e-07
0.000119117
1.19794e-07
0.000119094
1.03276e-07
0.000119074
8.78519e-08
0.000119057
7.37821e-08
0.000119043
6.13458e-08
0.00011903
5.08398e-08
0.000119019
4.25821e-08
0.000119009
3.69095e-08
0.000118999
3.41771e-08
0.000118988
3.47662e-08
0.000118977
3.90811e-08
0.000118963
4.75604e-08
0.000118945
6.06766e-08
0.000118924
7.89476e-08
0.000118896
1.02945e-07
0.000118862
1.33303e-07
0.000118819
1.70737e-07
0.000118766
2.16058e-07
0.000118701
2.70199e-07
0.000118622
3.34233e-07
0.000118527
4.09418e-07
0.000118413
4.97227e-07
0.000118277
5.99405e-07
0.000118117
7.18033e-07
0.00011793
8.55606e-07
0.00011771
1.01514e-06
0.000117454
1.20028e-06
0.000117157
1.41551e-06
0.000116815
1.6663e-06
0.00011642
1.9594e-06
0.000115968
2.30317e-06
0.000115452
2.70797e-06
0.000114867
3.18663e-06
0.000114207
3.75498e-06
0.000113472
4.43236e-06
0.000112663
5.24195e-06
0.000111795
6.21049e-06
0.000110893
7.36674e-06
0.00011001
8.73719e-06
0.000109227
1.03365e-05
0.000108671
1.21493e-05
0.000108499
1.40986e-05
0.000108849
1.60013e-05
1.75251e-05
0.000109677
0.000130587
-5.31294e-08
0.000130599
-4.94658e-08
0.000130598
2.55476e-08
0.000130573
1.66054e-07
0.000130515
3.4498e-07
0.000130423
5.24032e-07
0.000130302
6.68897e-07
0.000130163
7.6067e-07
0.000130013
7.98357e-07
0.000129862
7.9377e-07
0.000129716
7.63614e-07
0.000129575
7.23042e-07
0.000129442
6.8242e-07
0.000129316
6.46988e-07
0.000129196
6.18121e-07
0.00012908
5.94976e-07
0.000128969
5.75867e-07
0.000128861
5.59087e-07
0.000128756
5.43291e-07
0.000128655
5.27582e-07
0.000128558
5.11442e-07
0.000128463
4.94615e-07
0.000128373
4.77012e-07
0.000128286
4.58631e-07
0.000128202
4.39512e-07
0.000128123
4.19713e-07
0.000128047
3.99292e-07
0.000127975
3.78311e-07
0.000127907
3.56834e-07
0.000127844
3.3493e-07
0.000127784
3.12683e-07
0.000127729
2.90189e-07
0.000127678
2.67569e-07
0.00012763
2.44961e-07
0.000127587
2.22532e-07
0.000127547
2.00471e-07
0.000127512
1.78996e-07
0.000127479
1.58349e-07
0.00012745
1.38801e-07
0.000127424
1.20642e-07
0.000127401
1.04188e-07
0.000127379
8.9781e-08
0.00012736
7.77803e-08
0.000127341
6.85704e-08
0.000127323
6.25575e-08
0.000127305
6.0175e-08
0.000127286
6.18785e-08
0.000127265
6.81568e-08
0.000127241
7.95339e-08
0.000127213
9.6576e-08
0.000127181
1.19898e-07
0.000127142
1.50176e-07
0.000127096
1.88158e-07
0.000127041
2.34681e-07
0.000126975
2.9069e-07
0.000126897
3.57259e-07
0.000126805
4.35623e-07
0.000126696
5.27205e-07
0.000126568
6.33665e-07
0.00012642
7.56942e-07
0.000126248
8.99323e-07
0.000126049
1.06351e-06
0.000125821
1.25271e-06
0.00012556
1.47075e-06
0.000125262
1.72221e-06
0.000124925
2.01257e-06
0.000124545
2.34837e-06
0.00012412
2.73746e-06
0.000123648
3.18919e-06
0.000123129
3.71458e-06
0.000122567
4.32648e-06
0.000121969
5.0395e-06
0.00012135
5.86959e-06
0.000120737
6.83294e-06
0.000120169
7.94357e-06
0.000119706
9.20889e-06
0.000119429
1.0622e-05
0.000119438
1.21497e-05
0.000119829
1.37158e-05
0.000120654
1.5185e-05
1.63595e-05
0.000121828
0.000139735
-6.49597e-08
0.000139748
-6.32136e-08
0.000139751
2.33761e-08
0.000139729
1.88255e-07
0.000139674
4.00215e-07
0.000139584
6.14357e-07
0.000139463
7.89853e-07
0.000139321
9.03541e-07
0.000139167
9.53251e-07
0.000139009
9.52114e-07
0.000138854
9.19439e-07
0.000138705
8.73086e-07
0.000138563
8.25542e-07
0.000138428
7.83345e-07
0.000138299
7.48459e-07
0.000138175
7.20159e-07
0.000138056
6.96625e-07
0.000137941
6.75935e-07
0.00013783
6.56543e-07
0.000137723
6.37394e-07
0.000137619
6.17858e-07
0.000137518
5.9762e-07
0.000137422
5.76553e-07
0.000137329
5.54646e-07
0.00013724
5.31934e-07
0.000137155
5.08478e-07
0.000137074
4.84349e-07
0.000136997
4.59615e-07
0.000136924
4.34354e-07
0.000136855
4.08651e-07
0.00013679
3.82606e-07
0.000136729
3.56338e-07
0.000136672
3.29988e-07
0.000136619
3.03727e-07
0.000136569
2.77752e-07
0.000136524
2.52288e-07
0.000136482
2.27594e-07
0.000136443
2.03957e-07
0.000136407
1.81695e-07
0.000136373
1.61151e-07
0.000136342
1.42699e-07
0.000136313
1.26734e-07
0.000136285
1.13682e-07
0.000136257
1.03993e-07
0.00013623
9.81403e-08
0.000136202
9.6625e-08
0.000136172
9.99788e-08
0.00013614
1.08769e-07
0.000136105
1.23595e-07
0.000136065
1.4511e-07
0.00013602
1.74014e-07
0.000135968
2.11073e-07
0.000135909
2.5713e-07
0.00013584
3.13121e-07
0.00013576
3.80092e-07
0.000135667
4.59223e-07
0.000135561
5.51855e-07
0.000135438
6.59519e-07
0.000135297
7.83972e-07
0.000135137
9.27247e-07
0.000134954
1.09169e-06
0.000134748
1.28004e-06
0.000134515
1.49548e-06
0.000134254
1.74171e-06
0.000133963
2.02303e-06
0.000133641
2.34446e-06
0.000133287
2.71176e-06
0.000132903
3.13157e-06
0.00013249
3.61138e-06
0.000132055
4.15951e-06
0.000131606
4.78494e-06
0.000131159
5.49689e-06
0.000130734
6.30406e-06
0.000130363
7.21326e-06
0.000130089
8.22725e-06
0.000129966
9.34128e-06
0.000130059
1.05382e-05
0.000130436
1.17821e-05
0.000131149
1.30118e-05
0.000132207
1.41369e-05
1.50451e-05
0.00013353
0.000149523
-7.79059e-08
0.000149539
-7.94054e-08
0.000149545
1.74741e-08
0.000149528
2.05758e-07
0.000149478
4.50578e-07
0.000149392
7.00739e-07
0.000149273
9.08858e-07
0.00014913
1.04715e-06
0.000148972
1.1117e-06
0.000148809
1.11649e-06
0.000148646
1.08311e-06
0.000148488
1.03206e-06
0.000148337
9.78013e-07
0.000148192
9.28995e-07
0.000148054
8.87742e-07
0.000147922
8.53805e-07
0.000147796
8.25332e-07
0.000147673
8.00259e-07
0.000147555
7.76859e-07
0.000147441
7.53926e-07
0.000147331
7.30722e-07
0.000147225
7.06857e-07
0.000147122
6.82166e-07
0.000147024
6.56609e-07
0.000146929
6.30221e-07
0.000146838
6.03061e-07
0.000146752
5.75205e-07
0.000146669
5.46733e-07
0.00014659
5.17735e-07
0.000146516
4.88312e-07
0.000146445
4.58583e-07
0.000146378
4.28689e-07
0.000146315
3.98798e-07
0.000146256
3.69109e-07
0.0001462
3.39849e-07
0.000146148
3.11285e-07
0.000146099
2.83712e-07
0.000146052
2.57462e-07
0.000146008
2.32901e-07
0.000145967
2.10422e-07
0.000145927
1.90449e-07
0.000145888
1.73438e-07
0.00014585
1.59873e-07
0.000145813
1.50261e-07
0.000145774
1.4514e-07
0.000145735
1.45077e-07
0.000145693
1.50668e-07
0.000145648
1.62546e-07
0.0001456
1.81385e-07
0.000145547
2.07898e-07
0.000145488
2.42861e-07
0.000145421
2.87109e-07
0.000145347
3.41552e-07
0.000145263
4.07192e-07
0.000145168
4.85139e-07
0.000145061
5.76626e-07
0.00014494
6.8304e-07
0.000144804
8.05936e-07
0.000144651
9.47079e-07
0.00014448
1.10847e-06
0.00014429
1.29237e-06
0.000144079
1.50135e-06
0.000143847
1.73836e-06
0.000143592
2.00668e-06
0.000143316
2.31003e-06
0.000143018
2.65257e-06
0.000142702
3.03886e-06
0.00014237
3.47387e-06
0.000142029
3.96281e-06
0.000141688
4.51101e-06
0.00014136
5.12351e-06
0.000141062
5.80462e-06
0.00014082
6.55705e-06
0.000140662
7.38082e-06
0.000140628
8.27165e-06
0.000140761
9.21888e-06
0.000141106
1.02029e-05
0.000141705
1.11927e-05
0.000142583
1.21439e-05
0.00014373
1.29999e-05
1.3698e-05
0.000145087
0.000159996
-9.20551e-08
0.000160015
-9.83202e-08
0.000160026
7.18302e-09
0.000160014
2.17419e-07
0.000159971
4.94427e-07
0.000159891
7.81198e-07
0.000159776
1.02385e-06
0.000159634
1.1896e-06
0.000159474
1.2722e-06
0.000159306
1.28584e-06
0.000159136
1.25401e-06
0.000158969
1.19969e-06
0.000158809
1.13982e-06
0.000158655
1.08408e-06
0.000158508
1.03617e-06
0.000158368
9.96115e-07
0.000158233
9.62168e-07
0.000158103
9.32191e-07
0.000157978
9.0433e-07
0.000157857
8.77239e-07
0.000157741
8.50069e-07
0.000157629
8.2235e-07
0.00015752
7.93866e-07
0.000157416
7.64549e-07
0.000157316
7.34416e-07
0.000157219
7.03526e-07
0.000157127
6.71956e-07
0.000157039
6.39799e-07
0.000156954
6.07155e-07
0.000156874
5.74144e-07
0.000156797
5.40903e-07
0.000156724
5.07598e-07
0.000156655
4.74423e-07
0.000156589
4.41603e-07
0.000156526
4.09402e-07
0.000156466
3.78122e-07
0.000156409
3.48097e-07
0.000156355
3.19702e-07
0.000156302
2.93344e-07
0.000156251
2.69465e-07
0.000156201
2.48542e-07
0.000156152
2.31078e-07
0.000156104
2.17608e-07
0.000156054
2.08696e-07
0.000156004
2.04933e-07
0.000155951
2.0694e-07
0.000155896
2.1537e-07
0.000155838
2.30908e-07
0.000155775
2.54278e-07
0.000155707
2.86251e-07
0.000155632
3.27643e-07
0.00015555
3.79332e-07
0.00015546
4.42264e-07
0.000155361
5.17468e-07
0.000155251
6.06066e-07
0.000155129
7.09288e-07
0.000154994
8.28491e-07
0.000154846
9.65177e-07
0.000154683
1.12101e-06
0.000154505
1.29782e-06
0.000154311
1.49766e-06
0.000154101
1.72277e-06
0.000153875
1.97563e-06
0.000153634
2.25891e-06
0.00015338
2.57551e-06
0.000153115
2.92847e-06
0.000152844
3.32095e-06
0.000152573
3.75608e-06
0.00015231
4.23679e-06
0.000152067
4.76559e-06
0.000151857
5.34421e-06
0.0001517
5.97309e-06
0.000151617
6.65081e-06
0.000151636
7.3733e-06
0.000151785
8.13292e-06
0.000152098
8.9174e-06
0.000152602
9.70894e-06
0.000153322
1.04835e-05
0.000154266
1.1211e-05
0.000155419
1.1857e-05
1.23872e-05
0.00015674
0.000171203
-1.0745e-07
0.000171225
-1.20162e-07
0.000171241
-7.97162e-09
0.000171236
2.22357e-07
0.0001712
5.30443e-07
0.000171128
8.54048e-07
0.000171019
1.13297e-06
0.00017088
1.32908e-06
0.00017072
1.43315e-06
0.000170548
1.45891e-06
0.000170372
1.43127e-06
0.000170197
1.37545e-06
0.000170028
1.3107e-06
0.000169865
1.24849e-06
0.000169709
1.19376e-06
0.00016956
1.14715e-06
0.000169417
1.1072e-06
0.00016928
1.0718e-06
0.000169147
1.03901e-06
0.00016902
1.00737e-06
0.000168897
9.75926e-07
0.000168779
9.44125e-07
0.000168665
9.11687e-07
0.000168554
8.78509e-07
0.000168448
8.44586e-07
0.000168347
8.0997e-07
0.000168249
7.74739e-07
0.000168154
7.38992e-07
0.000168064
7.02844e-07
0.000167977
6.6643e-07
0.000167894
6.29911e-07
0.000167815
5.93473e-07
0.000167739
5.57338e-07
0.000167665
5.21763e-07
0.000167595
4.87042e-07
0.000167527
4.53511e-07
0.000167462
4.21542e-07
0.000167398
3.91547e-07
0.000167336
3.63975e-07
0.000167274
3.39311e-07
0.000167214
3.1807e-07
0.000167153
3.00805e-07
0.000167092
2.88091e-07
0.00016703
2.80536e-07
0.000166966
2.78775e-07
0.0001669
2.83471e-07
0.00016683
2.95315e-07
0.000166756
3.15029e-07
0.000166678
3.43371e-07
0.000166594
3.81134e-07
0.000166504
4.29155e-07
0.000166406
4.88321e-07
0.0001663
5.59574e-07
0.000166185
6.43923e-07
0.00016606
7.42447e-07
0.000165924
8.56311e-07
0.000165778
9.86771e-07
0.00016562
1.13518e-06
0.000165449
1.30301e-06
0.000165267
1.49182e-06
0.000165074
1.7033e-06
0.000164869
1.93924e-06
0.000164655
2.20151e-06
0.000164434
2.49203e-06
0.000164209
2.81275e-06
0.000163984
3.16554e-06
0.000163765
3.55211e-06
0.000163559
3.97389e-06
0.000163376
4.43182e-06
0.000163227
4.92613e-06
0.000163127
5.45608e-06
0.000163093
6.01958e-06
0.000163142
6.61284e-06
0.000163297
7.22993e-06
0.00016358
7.86235e-06
0.00016401
8.49873e-06
0.000164606
9.12461e-06
0.000165378
9.7226e-06
0.000166327
1.02731e-05
0.00016744
1.07557e-05
1.11514e-05
0.000168687
0.000183195
-1.24111e-07
0.00018322
-1.44993e-07
0.000183241
-2.82205e-08
0.000183243
2.20074e-07
0.000183216
5.57771e-07
0.000183153
9.18074e-07
0.000183052
1.2347e-06
0.000182918
1.46395e-06
0.000182759
1.59296e-06
0.000182584
1.6343e-06
0.000182403
1.61374e-06
0.000182221
1.5585e-06
0.000182043
1.49006e-06
0.000181871
1.42188e-06
0.000181706
1.36029e-06
0.000181549
1.30681e-06
0.000181398
1.26039e-06
0.000181253
1.21907e-06
0.000181114
1.1809e-06
0.00018098
1.14434e-06
0.000180851
1.10833e-06
0.000180726
1.07224e-06
0.000180606
1.03571e-06
0.00018049
9.98595e-07
0.000180378
9.60873e-07
0.00018027
9.22574e-07
0.000180166
8.83778e-07
0.000180066
8.44588e-07
0.00017997
8.05134e-07
0.000179876
7.65566e-07
0.000179787
7.26065e-07
0.0001797
6.86843e-07
0.000179616
6.48148e-07
0.000179535
6.10264e-07
0.000179456
5.73516e-07
0.00017938
5.38271e-07
0.000179305
5.04936e-07
0.000179231
4.73956e-07
0.000179158
4.45813e-07
0.000179086
4.21028e-07
0.000179013
4.00152e-07
0.00017894
3.83768e-07
0.000178866
3.72488e-07
0.000178789
3.66949e-07
0.000178711
3.67813e-07
0.000178629
3.75771e-07
0.000178544
3.91532e-07
0.000178455
4.15834e-07
0.00017836
4.49443e-07
0.00017826
4.93148e-07
0.000178153
5.47772e-07
0.000178039
6.14175e-07
0.000177917
6.93252e-07
0.000177787
7.85943e-07
0.000177649
8.93231e-07
0.000177501
1.01615e-06
0.000177345
1.15579e-06
0.000177179
1.31328e-06
0.000177005
1.4898e-06
0.000176823
1.68656e-06
0.000176634
1.90481e-06
0.000176441
2.14579e-06
0.000176244
2.41071e-06
0.000176048
2.70068e-06
0.000175857
3.01671e-06
0.000175676
3.35955e-06
0.000175511
3.72966e-06
0.000175371
4.12704e-06
0.000175264
4.5511e-06
0.000175203
5.00049e-06
0.000175199
5.47291e-06
0.000175266
5.96492e-06
0.00017542
6.47175e-06
0.000175675
6.98713e-06
0.000176046
7.50319e-06
0.000176547
8.01045e-06
0.000177186
8.498e-06
0.000177967
8.95381e-06
0.000178887
9.3654e-06
0.000179934
9.72079e-06
1.00098e-05
0.000181087
0.000196027
-1.42002e-07
0.000196055
-1.72752e-07
0.000196081
-5.35086e-08
0.000196091
2.10524e-07
0.000196073
5.76134e-07
0.000196019
9.72661e-07
0.000195926
1.32809e-06
0.000195798
1.59295e-06
0.000195641
1.7502e-06
0.000195466
1.81057e-06
0.000195281
1.80012e-06
0.000195093
1.74772e-06
0.000194907
1.67705e-06
0.000194727
1.60361e-06
0.000194554
1.53535e-06
0.000194388
1.47482e-06
0.000194229
1.4216e-06
0.000194077
1.37396e-06
0.000193931
1.33003e-06
0.00019379
1.28821e-06
0.000193655
1.24738e-06
0.000193524
1.20681e-06
0.000193398
1.16609e-06
0.000193275
1.12502e-06
0.000193158
1.08353e-06
0.000193044
1.04165e-06
0.000192933
9.99443e-07
0.000192827
9.5702e-07
0.000192723
9.14521e-07
0.000192623
8.72113e-07
0.000192526
8.29998e-07
0.000192432
7.8841e-07
0.00019234
7.47622e-07
0.00019225
7.07944e-07
0.000192162
6.69729e-07
0.000192075
6.33371e-07
0.00019199
5.99304e-07
0.000191905
5.68001e-07
0.00019182
5.39972e-07
0.000191736
5.15761e-07
0.00019165
4.95944e-07
0.000191563
4.81125e-07
0.000191474
4.71935e-07
0.000191383
4.69028e-07
0.000191289
4.73077e-07
0.000191192
4.84775e-07
0.00019109
5.04833e-07
0.000190984
5.33979e-07
0.000190872
5.72953e-07
0.000190755
6.22516e-07
0.000190632
6.83443e-07
0.000190503
7.56522e-07
0.000190366
8.42562e-07
0.000190223
9.42386e-07
0.000190072
1.05683e-06
0.000189915
1.18674e-06
0.000189751
1.33298e-06
0.000189581
1.4964e-06
0.000189407
1.67784e-06
0.000189229
1.8781e-06
0.000189049
2.09795e-06
0.00018887
2.33805e-06
0.000188696
2.59894e-06
0.000188529
2.88102e-06
0.000188375
3.18441e-06
0.00018824
3.50895e-06
0.000188129
3.85409e-06
0.000188051
4.21882e-06
0.000188014
4.60151e-06
0.000188028
4.99991e-06
0.000188103
5.41094e-06
0.000188251
5.83072e-06
0.000188482
6.25442e-06
0.000188806
6.67631e-06
0.000189233
7.08979e-06
0.000189769
7.48752e-06
0.000190418
7.86164e-06
0.000191181
8.20407e-06
0.000192052
8.50704e-06
0.000193022
8.76358e-06
8.96822e-06
0.000194077
0.000209758
-1.61051e-07
0.000209789
-2.03245e-07
0.000209819
-8.35111e-08
0.000209836
1.94089e-07
0.000209826
5.85836e-07
0.000209782
1.01785e-06
0.000209698
1.41277e-06
0.000209576
1.71528e-06
0.000209423
1.90372e-06
0.000209249
1.98637e-06
0.000209061
1.98901e-06
0.000208868
1.94183e-06
0.000208676
1.87057e-06
0.000208489
1.79283e-06
0.000208308
1.7183e-06
0.000208134
1.65078e-06
0.000207968
1.59057e-06
0.000207808
1.53634e-06
0.000207655
1.48637e-06
0.000207508
1.43906e-06
0.000207366
1.39323e-06
0.000207228
1.34808e-06
0.000207096
1.30313e-06
0.000206967
1.25813e-06
0.000206843
1.21298e-06
0.000206722
1.16768e-06
0.000206605
1.12228e-06
0.000206491
1.0769e-06
0.000206381
1.03169e-06
0.000206273
9.86836e-07
0.000206167
9.42546e-07
0.000206064
8.9908e-07
0.000205963
8.56733e-07
0.000205864
8.15839e-07
0.000205765
7.76773e-07
0.000205668
7.39949e-07
0.000205571
7.05823e-07
0.000205474
6.74887e-07
0.000205376
6.47667e-07
0.000205278
6.24722e-07
0.000205178
6.06639e-07
0.000205076
5.9403e-07
0.000204972
5.87527e-07
0.000204865
5.87781e-07
0.000204754
5.95459e-07
0.00020464
6.11236e-07
0.000204522
6.35796e-07
0.000204398
6.6983e-07
0.00020427
7.14031e-07
0.000204137
7.69091e-07
0.000203998
8.35703e-07
0.000203853
9.14552e-07
0.000203703
1.00632e-06
0.000203548
1.11166e-06
0.000203387
1.23124e-06
0.000203222
1.36567e-06
0.000203054
1.51554e-06
0.000202883
1.68138e-06
0.000202712
1.86368e-06
0.000202542
2.06282e-06
0.000202375
2.27909e-06
0.000202215
2.5126e-06
0.000202065
2.76333e-06
0.00020193
3.031e-06
0.000201814
3.31509e-06
0.000201722
3.61473e-06
0.000201662
3.9287e-06
0.00020164
4.25532e-06
0.000201664
4.59246e-06
0.000201741
4.93745e-06
0.000201879
5.28706e-06
0.000202087
5.63751e-06
0.000202371
5.98448e-06
0.000202738
6.32317e-06
0.000203194
6.6484e-06
0.000203741
6.95474e-06
0.00020438
7.23674e-06
0.000205109
7.48913e-06
0.000205922
7.70713e-06
0.000206813
7.88675e-06
8.02515e-06
0.000207769
0.00022445
-1.81161e-07
0.000224483
-2.36181e-07
0.000224518
-1.17698e-07
0.000224541
1.71517e-07
0.000224539
5.87669e-07
0.000224503
1.05425e-06
0.000224428
1.48895e-06
0.000224313
1.83065e-06
0.000224165
2.05274e-06
0.000223992
2.16053e-06
0.000223804
2.17906e-06
0.000223607
2.13948e-06
0.00022341
2.0694e-06
0.000223216
1.98853e-06
0.000223029
1.90839e-06
0.000222848
1.83414e-06
0.000222674
1.76698e-06
0.000222507
1.70609e-06
0.000222347
1.64993e-06
0.000222192
1.59701e-06
0.000222043
1.5461e-06
0.000221899
1.49636e-06
0.00022176
1.44724e-06
0.000221625
1.39843e-06
0.000221493
1.34979e-06
0.000221365
1.30131e-06
0.000221241
1.25302e-06
0.000221119
1.20505e-06
0.000221
1.15755e-06
0.000220883
1.1107e-06
0.000220769
1.06475e-06
0.000220656
1.01996e-06
0.000220545
9.76652e-07
0.000220434
9.35171e-07
0.000220324
8.9591e-07
0.000220215
8.59298e-07
0.000220105
8.25802e-07
0.000219994
7.95922e-07
0.000219882
7.7019e-07
0.000219769
7.49166e-07
0.000219654
7.33435e-07
0.000219536
7.23597e-07
0.000219415
7.20272e-07
0.000219291
7.24088e-07
0.000219164
7.35679e-07
0.000219032
7.55683e-07
0.000218897
7.84733e-07
0.000218757
8.23455e-07
0.000218612
8.72462e-07
0.000218463
9.32354e-07
0.000218309
1.00371e-06
0.000218151
1.08707e-06
0.000217989
1.18296e-06
0.000217823
1.29187e-06
0.000217655
1.41421e-06
0.000217485
1.55036e-06
0.000217315
1.70062e-06
0.000217147
1.86522e-06
0.000216981
2.04427e-06
0.000216822
2.23777e-06
0.000216671
2.44556e-06
0.000216531
2.66732e-06
0.000216408
2.90255e-06
0.000216304
3.15048e-06
0.000216224
3.4101e-06
0.000216174
3.68012e-06
0.00021616
3.95892e-06
0.000216186
4.24454e-06
0.000216259
4.53466e-06
0.000216385
4.8266e-06
0.00021657
5.11736e-06
0.00021682
5.40359e-06
0.000217138
5.6817e-06
0.000217528
5.94791e-06
0.000217993
6.19834e-06
0.000218534
6.42913e-06
0.000219149
6.63662e-06
0.000219835
6.81744e-06
0.000220588
6.96873e-06
0.000221402
7.08825e-06
7.17464e-06
0.000222267
0.000240171
-2.02203e-07
0.000240207
-2.71201e-07
0.000240244
-1.55403e-07
0.000240273
1.4377e-07
0.000240278
5.82764e-07
0.00024025
1.08291e-06
0.000240182
1.55733e-06
0.000240075
1.93921e-06
0.000239931
2.19683e-06
0.000239761
2.33218e-06
0.000239572
2.3691e-06
0.000239374
2.33938e-06
0.000239173
2.27231e-06
0.000238974
2.18965e-06
0.00023878
2.10477e-06
0.000238592
2.02432e-06
0.000238411
1.95048e-06
0.000238238
1.88303e-06
0.00023807
1.82075e-06
0.000237909
1.76225e-06
0.000237753
1.70632e-06
0.000237602
1.65208e-06
0.000237455
1.59893e-06
0.000237312
1.54652e-06
0.000237173
1.49468e-06
0.000237037
1.44336e-06
0.000236904
1.39258e-06
0.000236773
1.34246e-06
0.000236645
1.29316e-06
0.000236518
1.24486e-06
0.000236393
1.19783e-06
0.00023627
1.15233e-06
0.000236147
1.10871e-06
0.000236024
1.0673e-06
0.000235901
1.02853e-06
0.000235778
9.92811e-07
0.000235654
9.60622e-07
0.000235528
9.32457e-07
0.000235401
9.08842e-07
0.000235272
8.90322e-07
0.00023514
8.77461e-07
0.000235005
8.70837e-07
0.000234867
8.71033e-07
0.000234726
8.78635e-07
0.000234581
8.94226e-07
0.000234432
9.1838e-07
0.000234279
9.51655e-07
0.000234122
9.94588e-07
0.000233962
1.04769e-06
0.000233797
1.11144e-06
0.00023363
1.18627e-06
0.00023346
1.27257e-06
0.000233287
1.37069e-06
0.000233114
1.48089e-06
0.00023294
1.60338e-06
0.000232768
1.73829e-06
0.000232599
1.88563e-06
0.000232435
2.04532e-06
0.000232279
2.21717e-06
0.000232132
2.40083e-06
0.000231998
2.5958e-06
0.00023188
2.80142e-06
0.000231783
3.01683e-06
0.000231709
3.24096e-06
0.000231663
3.47252e-06
0.000231649
3.71e-06
0.000231673
3.95162e-06
0.000231739
4.1954e-06
0.000231851
4.4391e-06
0.000232014
4.68029e-06
0.000232231
4.91636e-06
0.000232506
5.14454e-06
0.000232842
5.362e-06
0.00023324
5.5659e-06
0.000233701
5.75344e-06
0.000234224
5.92199e-06
0.000234808
6.06914e-06
0.000235448
6.19281e-06
0.000236141
6.29134e-06
0.000236881
6.36355e-06
6.40886e-06
0.000237663
0.000256993
-2.24035e-07
0.00025703
-3.07924e-07
0.000257071
-1.95908e-07
0.000257103
1.11917e-07
0.000257114
5.72419e-07
0.000257093
1.10512e-06