/*--------------------------------*- C++ -*----------------------------------*\
| =========                 |                                                 |
| \\      /  F ield         | OpenFOAM: The Open Source CFD Toolbox           |
|  \\    /   O peration     | Version:  2106                                  |
|   \\  /    A nd           | Website:  www.openfoam.com                      |
|    \\/     M anipulation  |                                                 |
\*---------------------------------------------------------------------------*/
FoamFile
{
    version     2.0;
    format      ascii;
    arch        "LSB;label=32;scalar=64";
    class       volScalarField;
    location    "0.8";
    object      T;
}
// * * * * * * * * * * * * * * * * * * * * * * * * * * * * * * * * * * * * * //

dimensions      [0 0 0 1 0 0 0];

internalField   nonuniform List<scalar> 
12013
(
300
300
300.001
300.001
300.001
300.001
300.002
300.002
300.003
300.004
300.004
300.005
300.006
300.008
300.009
300.011
300.013
300.015
300.017
300.02
300.023
300.026
300.03
300.034
300.039
300.044
300.049
300.055
300.062
300.069
300.077
300.086
300.095
300.105
300.115
300.127
300.139
300.152
300.165
300.18
300.196
300.212
300.229
300.248
300.267
300.287
300.309
300.331
300.355
300.379
300.405
300.432
300.461
300.49
300.521
300.553
300.586
300.621
300.657
300.695
300.734
300.774
300.817
300.861
300.907
300.954
301.004
301.056
301.11
301.166
301.226
301.288
301.353
301.422
301.495
301.574
301.658
301.749
301.851
301.967
302.106
300
300
300.001
300.001
300.001
300.001
300.002
300.002
300.003
300.004
300.004
300.005
300.006
300.008
300.009
300.011
300.013
300.015
300.017
300.02
300.023
300.026
300.03
300.034
300.039
300.044
300.049
300.055
300.062
300.069
300.077
300.086
300.095
300.105
300.115
300.127
300.139
300.152
300.165
300.18
300.195
300.212
300.229
300.248
300.267
300.287
300.309
300.331
300.355
300.379
300.405
300.432
300.46
300.49
300.52
300.552
300.586
300.62
300.657
300.694
300.733
300.774
300.816
300.86
300.906
300.953
301.003
301.055
301.109
301.165
301.224
301.286
301.351
301.419
301.492
301.569
301.651
301.741
301.838
301.946
302.064
300
300
300.001
300.001
300.001
300.001
300.002
300.002
300.003
300.004
300.004
300.005
300.006
300.008
300.009
300.011
300.013
300.015
300.017
300.02
300.023
300.026
300.03
300.034
300.039
300.044
300.049
300.055
300.062
300.069
300.077
300.086
300.095
300.105
300.115
300.126
300.139
300.151
300.165
300.18
300.195
300.212
300.229
300.247
300.267
300.287
300.308
300.331
300.354
300.379
300.405
300.432
300.46
300.489
300.52
300.552
300.585
300.62
300.656
300.693
300.732
300.773
300.815
300.858
300.904
300.951
301.001
301.052
301.106
301.161
301.22
301.281
301.345
301.412
301.484
301.559
301.638
301.723
301.814
301.91
302.011
300
300
300.001
300.001
300.001
300.001
300.002
300.002
300.003
300.004
300.004
300.005
300.006
300.008
300.009
300.011
300.013
300.015
300.017
300.02
300.023
300.026
300.03
300.034
300.039
300.044
300.049
300.055
300.062
300.069
300.077
300.085
300.095
300.104
300.115
300.126
300.138
300.151
300.165
300.18
300.195
300.211
300.229
300.247
300.266
300.287
300.308
300.33
300.354
300.378
300.404
300.431
300.459
300.488
300.519
300.551
300.584
300.618
300.654
300.691
300.73
300.77
300.812
300.856
300.901
300.948
300.997
301.048
301.101
301.156
301.213
301.273
301.336
301.402
301.471
301.543
301.619
301.698
301.781
301.867
301.953
300
300
300.001
300.001
300.001
300.001
300.002
300.002
300.003
300.004
300.004
300.005
300.006
300.008
300.009
300.011
300.012
300.015
300.017
300.02
300.023
300.026
300.03
300.034
300.039
300.044
300.049
300.055
300.062
300.069
300.077
300.085
300.094
300.104
300.115
300.126
300.138
300.151
300.165
300.179
300.195
300.211
300.228
300.247
300.266
300.286
300.307
300.329
300.353
300.377
300.403
300.43
300.458
300.487
300.517
300.549
300.582
300.616
300.652
300.689
300.727
300.767
300.809
300.852
300.897
300.943
300.991
301.042
301.094
301.148
301.204
301.263
301.324
301.387
301.453
301.522
301.593
301.667
301.742
301.818
301.894
300
300
300.001
300.001
300.001
300.001
300.002
300.002
300.003
300.004
300.004
300.005
300.006
300.008
300.009
300.011
300.012
300.015
300.017
300.02
300.023
300.026
300.03
300.034
300.039
300.044
300.049
300.055
300.062
300.069
300.077
300.085
300.094
300.104
300.115
300.126
300.138
300.151
300.164
300.179
300.194
300.21
300.228
300.246
300.265
300.285
300.306
300.328
300.352
300.376
300.402
300.428
300.456
300.485
300.515
300.547
300.579
300.613
300.649
300.685
300.724
300.763
300.804
300.847
300.891
300.937
300.984
301.033
301.084
301.137
301.192
301.249
301.307
301.368
301.431
301.496
301.562
301.63
301.698
301.767
301.834
300
300
300.001
300.001
300.001
300.001
300.002
300.002
300.003
300.004
300.004
300.005
300.006
300.008
300.009
300.011
300.012
300.015
300.017
300.02
300.023
300.026
300.03
300.034
300.038
300.043
300.049
300.055
300.062
300.069
300.076
300.085
300.094
300.104
300.114
300.125
300.137
300.15
300.164
300.178
300.193
300.21
300.227
300.245
300.264
300.284
300.305
300.327
300.35
300.374
300.4
300.426
300.454
300.482
300.512
300.544
300.576
300.61
300.645
300.681
300.719
300.758
300.798
300.84
300.883
300.928
300.974
301.022
301.072
301.123
301.176
301.231
301.287
301.345
301.404
301.465
301.526
301.588
301.651
301.712
301.773
300
300
300.001
300.001
300.001
300.001
300.002
300.002
300.003
300.004
300.004
300.005
300.006
300.008
300.009
300.011
300.012
300.014
300.017
300.02
300.023
300.026
300.03
300.034
300.038
300.043
300.049
300.055
300.061
300.068
300.076
300.085
300.094
300.103
300.114
300.125
300.137
300.149
300.163
300.177
300.193
300.209
300.226
300.244
300.263
300.282
300.303
300.325
300.348
300.372
300.397
300.423
300.451
300.479
300.509
300.54
300.572
300.605
300.639
300.675
300.712
300.75
300.79
300.831
300.874
300.917
300.963
301.009
301.057
301.107
301.157
301.209
301.263
301.317
301.373
301.429
301.486
301.543
301.6
301.656
301.711
300
300
300.001
300.001
300.001
300.001
300.002
300.002
300.003
300.004
300.004
300.005
300.006
300.007
300.009
300.011
300.012
300.014
300.017
300.019
300.022
300.026
300.029
300.034
300.038
300.043
300.049
300.055
300.061
300.068
300.076
300.084
300.093
300.103
300.113
300.124
300.136
300.149
300.162
300.176
300.191
300.207
300.224
300.242
300.261
300.281
300.301
300.323
300.346
300.369
300.394
300.42
300.447
300.475
300.504
300.535
300.566
300.599
300.633
300.668
300.704
300.742
300.781
300.821
300.862
300.904
300.948
300.993
301.039
301.087
301.135
301.184
301.235
301.286
301.338
301.39
301.443
301.495
301.547
301.598
301.648
300
300
300.001
300.001
300.001
300.001
300.002
300.002
300.003
300.004
300.004
300.005
300.006
300.007
300.009
300.01
300.012
300.014
300.017
300.019
300.022
300.026
300.029
300.033
300.038
300.043
300.048
300.054
300.061
300.068
300.075
300.084
300.093
300.102
300.112
300.123
300.135
300.148
300.161
300.175
300.19
300.206
300.223
300.24
300.259
300.278
300.299
300.32
300.343
300.366
300.391
300.416
300.443
300.47
300.499
300.529
300.56
300.592
300.625
300.659
300.695
300.731
300.769
300.808
300.848
300.889
300.931
300.974
301.018
301.063
301.109
301.156
301.203
301.251
301.3
301.348
301.396
301.444
301.492
301.539
301.584
300
300
300.001
300.001
300.001
300.001
300.002
300.002
300.003
300.003
300.004
300.005
300.006
300.007
300.009
300.01
300.012
300.014
300.017
300.019
300.022
300.025
300.029
300.033
300.038
300.043
300.048
300.054
300.06
300.067
300.075
300.083
300.092
300.101
300.111
300.122
300.134
300.146
300.16
300.174
300.188
300.204
300.221
300.238
300.256
300.276
300.296
300.317
300.339
300.362
300.386
300.411
300.437
300.464
300.493
300.522
300.552
300.583
300.616
300.649
300.683
300.719
300.755
300.793
300.831
300.871
300.911
300.952
300.994
301.037
301.08
301.124
301.168
301.213
301.258
301.303
301.347
301.391
301.435
301.478
301.519
300
300
300.001
300.001
300.001
300.001
300.002
300.002
300.003
300.003
300.004
300.005
300.006
300.007
300.009
300.01
300.012
300.014
300.016
300.019
300.022
300.025
300.029
300.033
300.037
300.042
300.048
300.053
300.06
300.067
300.074
300.082
300.091
300.1
300.11
300.121
300.133
300.145
300.158
300.172
300.186
300.202
300.218
300.235
300.253
300.272
300.292
300.313
300.334
300.357
300.381
300.405
300.431
300.457
300.485
300.513
300.543
300.573
300.604
300.637
300.67
300.704
300.739
300.775
300.812
300.85
300.888
300.927
300.967
301.007
301.048
301.089
301.13
301.172
301.213
301.254
301.295
301.336
301.376
301.415
301.453
300
300
300.001
300.001
300.001
300.001
300.002
300.002
300.003
300.003
300.004
300.005
300.006
300.007
300.009
300.01
300.012
300.014
300.016
300.019
300.022
300.025
300.029
300.033
300.037
300.042
300.047
300.053
300.059
300.066
300.073
300.081
300.09
300.099
300.109
300.12
300.131
300.143
300.156
300.17
300.184
300.199
300.215
300.232
300.25
300.268
300.288
300.308
300.329
300.351
300.374
300.398
300.423
300.449
300.476
300.503
300.532
300.561
300.591
300.623
300.655
300.687
300.721
300.755
300.79
300.826
300.862
300.899
300.937
300.974
301.012
301.051
301.089
301.127
301.166
301.204
301.241
301.279
301.315
301.351
301.386
300
300
300.001
300.001
300.001
300.001
300.002
300.002
300.003
300.003
300.004
300.005
300.006
300.007
300.009
300.01
300.012
300.014
300.016
300.019
300.022
300.025
300.028
300.032
300.037
300.041
300.046
300.052
300.058
300.065
300.072
300.08
300.089
300.098
300.108
300.118
300.129
300.141
300.154
300.167
300.181
300.196
300.212
300.228
300.245
300.264
300.282
300.302
300.323
300.345
300.367
300.39
300.414
300.439
300.465
300.492
300.519
300.548
300.577
300.607
300.637
300.668
300.7
300.733
300.766
300.8
300.834
300.869
300.904
300.939
300.974
301.01
301.045
301.081
301.116
301.151
301.185
301.22
301.253
301.286
301.318
300
300
300
300.001
300.001
300.001
300.002
300.002
300.003
300.003
300.004
300.005
300.006
300.007
300.008
300.01
300.012
300.014
300.016
300.018
300.021
300.024
300.028
300.032
300.036
300.041
300.046
300.051
300.058
300.064
300.071
300.079
300.087
300.096
300.106
300.116
300.127
300.139
300.151
300.164
300.178
300.192
300.207
300.224
300.24
300.258
300.277
300.296
300.316
300.337
300.358
300.381
300.404
300.428
300.453
300.479
300.505
300.532
300.56
300.588
300.617
300.647
300.677
300.708
300.739
300.771
300.803
300.835
300.868
300.901
300.933
300.966
300.999
301.031
301.064
301.096
301.128
301.159
301.19
301.22
301.249
300
300
300
300.001
300.001
300.001
300.002
300.002
300.003
300.003
300.004
300.005
300.006
300.007
300.008
300.01
300.012
300.013
300.016
300.018
300.021
300.024
300.027
300.031
300.035
300.04
300.045
300.051
300.056
300.063
300.07
300.078
300.086
300.094
300.104
300.114
300.124
300.136
300.148
300.16
300.174
300.188
300.203
300.218
300.235
300.252
300.27
300.288
300.308
300.328
300.349
300.37
300.393
300.416
300.439
300.464
300.489
300.515
300.541
300.568
300.595
300.623
300.652
300.681
300.71
300.74
300.769
300.799
300.83
300.86
300.89
300.92
300.95
300.98
301.01
301.039
301.068
301.097
301.125
301.153
301.18
300
300
300
300.001
300.001
300.001
300.002
300.002
300.003
300.003
300.004
300.005
300.006
300.007
300.008
300.01
300.011
300.013
300.015
300.018
300.021
300.024
300.027
300.031
300.035
300.039
300.044
300.049
300.055
300.062
300.068
300.076
300.084
300.092
300.101
300.111
300.121
300.132
300.144
300.156
300.169
300.183
300.197
300.212
300.228
300.245
300.262
300.28
300.298
300.318
300.338
300.358
300.38
300.401
300.424
300.447
300.471
300.495
300.52
300.546
300.571
300.598
300.624
300.651
300.678
300.706
300.733
300.761
300.789
300.817
300.845
300.872
300.9
300.927
300.954
300.981
301.007
301.034
301.059
301.084
301.109
300
300
300
300.001
300.001
300.001
300.002
300.002
300.003
300.003
300.004
300.005
300.006
300.007
300.008
300.009
300.011
300.013
300.015
300.017
300.02
300.023
300.026
300.03
300.034
300.038
300.043
300.048
300.054
300.06
300.067
300.074
300.082
300.09
300.099
300.108
300.118
300.129
300.14
300.152
300.164
300.177
300.191
300.206
300.221
300.237
300.253
300.27
300.288
300.306
300.325
300.345
300.365
300.386
300.407
300.429
300.451
300.474
300.497
300.521
300.545
300.57
300.594
300.619
300.644
300.67
300.695
300.721
300.746
300.772
300.797
300.822
300.848
300.872
300.897
300.922
300.946
300.969
300.993
301.015
301.038
300
300
300
300.001
300.001
300.001
300.002
300.002
300.003
300.003
300.004
300.005
300.006
300.007
300.008
300.009
300.011
300.013
300.015
300.017
300.02
300.022
300.026
300.029
300.033
300.037
300.042
300.047
300.052
300.058
300.065
300.072
300.079
300.087
300.096
300.105
300.114
300.124
300.135
300.147
300.158
300.171
300.184
300.198
300.212
300.228
300.243
300.259
300.276
300.294
300.311
300.33
300.349
300.368
300.388
300.409
300.43
300.451
300.473
300.495
300.517
300.54
300.562
300.585
300.609
300.632
300.655
300.678
300.702
300.725
300.748
300.771
300.794
300.817
300.839
300.861
300.883
300.904
300.925
300.946
300.966
300
300
300
300.001
300.001
300.001
300.002
300.002
300.002
300.003
300.004
300.004
300.005
300.006
300.008
300.009
300.01
300.012
300.014
300.016
300.019
300.022
300.025
300.028
300.032
300.036
300.04
300.045
300.051
300.056
300.062
300.069
300.076
300.084
300.092
300.101
300.11
300.12
300.13
300.141
300.152
300.164
300.177
300.19
300.203
300.217
300.232
300.247
300.263
300.28
300.296
300.314
300.331
300.35
300.368
300.387
300.407
300.426
300.446
300.467
300.487
300.508
300.529
300.55
300.571
300.592
300.613
300.634
300.656
300.677
300.698
300.718
300.739
300.76
300.78
300.8
300.819
300.839
300.858
300.876
300.895
300
300
300
300.001
300.001
300.001
300.002
300.002
300.002
300.003
300.004
300.004
300.005
300.006
300.007
300.009
300.01
300.012
300.014
300.016
300.018
300.021
300.024
300.027
300.031
300.035
300.039
300.044
300.049
300.054
300.06
300.066
300.073
300.08
300.088
300.096
300.105
300.114
300.124
300.134
300.145
300.156
300.168
300.18
300.193
300.206
300.22
300.235
300.249
300.265
300.28
300.296
300.313
300.329
300.347
300.364
300.382
300.4
300.418
300.437
300.456
300.475
300.494
300.513
300.532
300.551
300.57
300.589
300.608
300.627
300.646
300.665
300.684
300.702
300.72
300.738
300.756
300.773
300.79
300.807
300.823
300
300
300
300.001
300.001
300.001
300.001
300.002
300.002
300.003
300.003
300.004
300.005
300.006
300.007
300.008
300.01
300.011
300.013
300.015
300.017
300.02
300.023
300.026
300.029
300.033
300.037
300.042
300.046
300.052
300.057
300.063
300.07
300.076
300.084
300.091
300.1
300.108
300.118
300.127
300.137
300.148
300.159
300.17
300.182
300.195
300.207
300.221
300.234
300.248
300.263
300.277
300.293
300.308
300.324
300.34
300.356
300.372
300.389
300.406
300.423
300.44
300.457
300.474
300.492
300.509
300.526
300.543
300.56
300.577
300.594
300.611
300.628
300.644
300.66
300.676
300.692
300.708
300.723
300.738
300.753
300
300
300
300.001
300.001
300.001
300.001
300.002
300.002
300.003
300.003
300.004
300.005
300.006
300.007
300.008
300.009
300.011
300.013
300.014
300.017
300.019
300.022
300.025
300.028
300.031
300.035
300.039
300.044
300.049
300.054
300.06
300.066
300.072
300.079
300.086
300.094
300.102
300.111
300.119
300.129
300.139
300.149
300.159
300.17
300.182
300.194
300.206
300.218
300.231
300.244
300.258
300.271
300.285
300.3
300.314
300.329
300.344
300.359
300.374
300.389
300.405
300.42
300.435
300.451
300.466
300.481
300.497
300.512
300.527
300.542
300.557
300.572
300.586
300.601
300.615
300.629
300.643
300.656
300.669
300.683
300
300
300
300.001
300.001
300.001
300.001
300.002
300.002
300.003
300.003
300.004
300.004
300.005
300.006
300.007
300.009
300.01
300.012
300.014
300.016
300.018
300.02
300.023
300.026
300.03
300.033
300.037
300.041
300.046
300.051
300.056
300.062
300.068
300.074
300.081
300.088
300.095
300.103
300.111
300.12
300.129
300.138
300.148
300.158
300.168
300.179
300.19
300.201
300.213
300.225
300.237
300.249
300.262
300.275
300.288
300.301
300.314
300.328
300.341
300.355
300.368
300.382
300.396
300.409
300.423
300.437
300.45
300.464
300.477
300.49
300.503
300.516
300.529
300.542
300.554
300.566
300.579
300.591
300.602
300.614
300
300
300
300.001
300.001
300.001
300.001
300.002
300.002
300.002
300.003
300.004
300.004
300.005
300.006
300.007
300.008
300.01
300.011
300.013
300.015
300.017
300.019
300.022
300.024
300.028
300.031
300.034
300.038
300.043
300.047
300.052
300.057
300.063
300.068
300.075
300.081
300.088
300.095
300.102
300.11
300.118
300.127
300.136
300.145
300.154
300.164
300.174
300.184
300.194
300.205
300.216
300.227
300.238
300.249
300.261
300.273
300.284
300.296
300.308
300.32
300.332
300.344
300.356
300.368
300.38
300.392
300.404
300.416
300.427
300.439
300.45
300.462
300.473
300.484
300.495
300.505
300.516
300.526
300.537
300.547
300
300
300
300
300.001
300.001
300.001
300.001
300.002
300.002
300.003
300.003
300.004
300.005
300.006
300.006
300.008
300.009
300.01
300.012
300.014
300.016
300.018
300.02
300.023
300.025
300.028
300.032
300.035
300.039
300.043
300.048
300.052
300.057
300.063
300.068
300.074
300.08
300.087
300.093
300.1
300.108
300.115
300.123
300.131
300.14
300.148
300.157
300.166
300.175
300.185
300.194
300.204
300.214
300.224
300.234
300.244
300.254
300.265
300.275
300.286
300.296
300.306
300.317
300.327
300.338
300.348
300.358
300.368
300.379
300.389
300.398
300.408
300.418
300.428
300.437
300.446
300.455
300.464
300.473
300.482
300
300
300
300
300.001
300.001
300.001
300.001
300.002
300.002
300.002
300.003
300.004
300.004
300.005
300.006
300.007
300.008
300.009
300.011
300.012
300.014
300.016
300.018
300.021
300.023
300.026
300.029
300.032
300.036
300.039
300.043
300.047
300.052
300.057
300.062
300.067
300.072
300.078
300.084
300.09
300.097
300.103
300.11
300.117
300.125
300.132
300.14
300.148
300.156
300.164
300.172
300.181
300.19
300.198
300.207
300.216
300.225
300.234
300.243
300.252
300.261
300.27
300.279
300.287
300.296
300.305
300.314
300.323
300.331
300.34
300.348
300.357
300.365
300.373
300.381
300.389
300.397
300.405
300.413
300.42
300
300
300
300
300.001
300.001
300.001
300.001
300.001
300.002
300.002
300.003
300.003
300.004
300.005
300.005
300.006
300.007
300.008
300.01
300.011
300.013
300.015
300.016
300.019
300.021
300.023
300.026
300.029
300.032
300.035
300.039
300.042
300.046
300.05
300.055
300.059
300.064
300.069
300.074
300.08
300.085
300.091
300.097
300.104
300.11
300.116
300.123
300.13
300.137
300.144
300.151
300.158
300.166
300.173
300.181
300.188
300.196
300.203
300.211
300.219
300.226
300.234
300.241
300.249
300.257
300.264
300.272
300.279
300.286
300.294
300.301
300.308
300.315
300.322
300.329
300.335
300.342
300.348
300.355
300.361
300
300
300
300
300
300.001
300.001
300.001
300.001
300.002
300.002
300.002
300.003
300.003
300.004
300.005
300.006
300.007
300.008
300.009
300.01
300.011
300.013
300.015
300.016
300.018
300.021
300.023
300.025
300.028
300.031
300.034
300.037
300.041
300.044
300.048
300.052
300.056
300.06
300.065
300.07
300.074
300.079
300.085
300.09
300.095
300.101
300.106
300.112
300.118
300.124
300.13
300.136
300.143
300.149
300.155
300.161
300.168
300.174
300.181
300.187
300.193
300.2
300.206
300.212
300.219
300.225
300.231
300.237
300.244
300.25
300.256
300.262
300.267
300.273
300.279
300.284
300.29
300.295
300.301
300.306
300
300
300
300
300
300.001
300.001
300.001
300.001
300.001
300.002
300.002
300.003
300.003
300.004
300.004
300.005
300.006
300.007
300.008
300.009
300.01
300.011
300.013
300.014
300.016
300.018
300.02
300.022
300.024
300.027
300.029
300.032
300.035
300.038
300.041
300.045
300.048
300.052
300.056
300.06
300.064
300.068
300.072
300.077
300.081
300.086
300.091
300.095
300.1
300.105
300.11
300.115
300.12
300.126
300.131
300.136
300.141
300.147
300.152
300.157
300.163
300.168
300.173
300.178
300.183
300.189
300.194
300.199
300.204
300.209
300.214
300.219
300.223
300.228
300.233
300.237
300.242
300.246
300.251
300.255
300
300
300
300
300
300
300.001
300.001
300.001
300.001
300.001
300.002
300.002
300.003
300.003
300.004
300.004
300.005
300.006
300.006
300.007
300.008
300.01
300.011
300.012
300.014
300.015
300.017
300.019
300.021
300.023
300.025
300.027
300.03
300.032
300.035
300.038
300.041
300.044
300.047
300.05
300.053
300.057
300.06
300.064
300.068
300.072
300.075
300.079
300.083
300.087
300.092
300.096
300.1
300.104
300.108
300.113
300.117
300.121
300.125
300.13
300.134
300.138
300.142
300.147
300.151
300.155
300.159
300.163
300.167
300.171
300.175
300.179
300.183
300.187
300.191
300.194
300.198
300.202
300.205
300.209
300
300
300
300
300
300
300.001
300.001
300.001
300.001
300.001
300.001
300.002
300.002
300.003
300.003
300.003
300.004
300.005
300.005
300.006
300.007
300.008
300.009
300.01
300.011
300.013
300.014
300.015
300.017
300.019
300.021
300.022
300.024
300.027
300.029
300.031
300.033
300.036
300.038
300.041
300.044
300.047
300.049
300.052
300.055
300.058
300.061
300.065
300.068
300.071
300.074
300.078
300.081
300.084
300.088
300.091
300.095
300.098
300.101
300.105
300.108
300.112
300.115
300.118
300.122
300.125
300.128
300.131
300.135
300.138
300.141
300.144
300.147
300.15
300.153
300.156
300.159
300.162
300.165
300.167
300
300
300
300
300
300
300
300.001
300.001
300.001
300.001
300.001
300.001
300.002
300.002
300.002
300.003
300.003
300.004
300.004
300.005
300.006
300.006
300.007
300.008
300.009
300.01
300.011
300.013
300.014
300.015
300.017
300.018
300.02
300.021
300.023
300.025
300.027
300.029
300.031
300.033
300.035
300.037
300.039
300.042
300.044
300.046
300.049
300.051
300.054
300.056
300.059
300.062
300.064
300.067
300.069
300.072
300.075
300.077
300.08
300.083
300.085
300.088
300.09
300.093
300.096
300.098
300.101
300.103
300.106
300.108
300.111
300.113
300.115
300.118
300.12
300.122
300.124
300.127
300.129
300.131
300
300
300
300
300
300
300
300
300
300.001
300.001
300.001
300.001
300.001
300.002
300.002
300.002
300.003
300.003
300.003
300.004
300.004
300.005
300.006
300.006
300.007
300.008
300.009
300.01
300.011
300.012
300.013
300.014
300.015
300.017
300.018
300.019
300.021
300.022
300.024
300.025
300.027
300.029
300.031
300.032
300.034
300.036
300.038
300.04
300.042
300.044
300.045
300.047
300.049
300.051
300.053
300.055
300.057
300.059
300.061
300.063
300.065
300.067
300.069
300.071
300.073
300.075
300.077
300.079
300.081
300.083
300.084
300.086
300.088
300.09
300.092
300.093
300.095
300.097
300.098
300.1
300
300
300
300
300
300
300
300
300
300
300.001
300.001
300.001
300.001
300.001
300.001
300.002
300.002
300.002
300.003
300.003
300.003
300.004
300.004
300.005
300.005
300.006
300.007
300.007
300.008
300.009
300.01
300.011
300.012
300.013
300.014
300.015
300.016
300.017
300.018
300.019
300.02
300.022
300.023
300.024
300.026
300.027
300.028
300.03
300.031
300.033
300.034
300.035
300.037
300.038
300.04
300.041
300.043
300.044
300.046
300.047
300.049
300.05
300.051
300.053
300.054
300.056
300.057
300.059
300.06
300.061
300.063
300.064
300.065
300.067
300.068
300.069
300.07
300.072
300.073
300.074
300
300
300
300
300
300
300
300
300
300
300
300
300.001
300.001
300.001
300.001
300.001
300.001
300.002
300.002
300.002
300.002
300.003
300.003
300.003
300.004
300.004
300.005
300.005
300.006
300.006
300.007
300.008
300.008
300.009
300.01
300.011
300.011
300.012
300.013
300.014
300.015
300.016
300.017
300.018
300.018
300.019
300.02
300.021
300.022
300.023
300.024
300.026
300.027
300.028
300.029
300.03
300.031
300.032
300.033
300.034
300.035
300.036
300.037
300.038
300.039
300.04
300.041
300.042
300.043
300.044
300.045
300.046
300.047
300.048
300.049
300.05
300.05
300.051
300.052
300.053
300
300
300
300
300
300
300
300
300
300
300
300
300
300
300.001
300.001
300.001
300.001
300.001
300.001
300.001
300.002
300.002
300.002
300.002
300.003
300.003
300.003
300.004
300.004
300.004
300.005
300.005
300.006
300.006
300.007
300.007
300.008
300.008
300.009
300.01
300.01
300.011
300.012
300.012
300.013
300.014
300.014
300.015
300.016
300.016
300.017
300.018
300.018
300.019
300.02
300.021
300.021
300.022
300.023
300.023
300.024
300.025
300.026
300.026
300.027
300.028
300.028
300.029
300.03
300.03
300.031
300.032
300.032
300.033
300.034
300.034
300.035
300.035
300.036
300.037
300
300
300
300
300
300
300
300
300
300
300
300
300
300
300
300
300
300.001
300.001
300.001
300.001
300.001
300.001
300.001
300.002
300.002
300.002
300.002
300.002
300.003
300.003
300.003
300.004
300.004
300.004
300.004
300.005
300.005
300.006
300.006
300.006
300.007
300.007
300.008
300.008
300.009
300.009
300.009
300.01
300.01
300.011
300.011
300.012
300.012
300.013
300.013
300.014
300.014
300.015
300.015
300.016
300.016
300.017
300.017
300.017
300.018
300.018
300.019
300.019
300.02
300.02
300.021
300.021
300.022
300.022
300.022
300.023
300.023
300.024
300.024
300.024
300
300
300
300
300
300
300
300
300
300
300
300
300
300
300
300
300
300
300
300
300
300.001
300.001
300.001
300.001
300.001
300.001
300.001
300.001
300.002
300.002
300.002
300.002
300.002
300.003
300.003
300.003
300.003
300.004
300.004
300.004
300.004
300.005
300.005
300.005
300.005
300.006
300.006
300.006
300.007
300.007
300.007
300.008
300.008
300.008
300.008
300.009
300.009
300.009
300.01
300.01
300.01
300.011
300.011
300.011
300.012
300.012
300.012
300.012
300.013
300.013
300.013
300.014
300.014
300.014
300.014
300.015
300.015
300.015
300.015
300.016
300
300
300
300
300
300
300
300
300
300
300
300
300
300
300
300
300
300
300
300
300
300
300
300
300
300.001
300.001
300.001
300.001
300.001
300.001
300.001
300.001
300.001
300.002
300.002
300.002
300.002
300.002
300.002
300.003
300.003
300.003
300.003
300.003
300.003
300.004
300.004
300.004
300.004
300.004
300.005
300.005
300.005
300.005
300.005
300.006
300.006
300.006
300.006
300.006
300.007
300.007
300.007
300.007
300.007
300.008
300.008
300.008
300.008
300.008
300.009
300.009
300.009
300.009
300.009
300.01
300.01
300.01
300.01
300.01
300
300
300
300
300
300
300
300
300
300
300
300
300
300
300
300
300
300
300
300
300
300
300
300
300
300
300
300
300
300.001
300.001
300.001
300.001
300.001
300.001
300.001
300.001
300.001
300.001
300.002
300.002
300.002
300.002
300.002
300.002
300.002
300.003
300.003
300.003
300.003
300.003
300.003
300.003
300.004
300.004
300.004
300.004
300.004
300.004
300.005
300.005
300.005
300.005
300.005
300.005
300.005
300.006
300.006
300.006
300.006
300.006
300.006
300.006
300.007
300.007
300.007
300.007
300.007
300.007
300.007
300.007
302.291
302.412
302.484
302.55
302.607
302.653
302.683
302.717
302.751
302.783
302.809
302.837
302.866
302.893
302.92
302.946
302.971
302.992
303.014
303.037
303.058
303.08
303.102
303.122
303.143
303.163
303.182
303.202
303.22
303.238
303.256
303.273
303.29
303.307
303.323
303.338
303.354
303.369
303.384
303.398
303.412
303.425
303.44
303.454
303.468
303.481
303.493
303.506
303.519
303.531
303.543
303.553
303.564
303.576
303.587
303.598
303.609
303.619
303.629
303.638
303.646
303.655
303.663
303.672
303.68
303.689
303.696
303.704
303.711
303.718
303.725
303.732
303.738
303.744
303.75
303.755
303.76
303.765
303.77
303.775
303.78
303.785
303.789
303.792
303.796
303.799
303.802
303.806
303.809
303.811
303.814
303.816
303.819
303.821
303.823
303.825
303.827
303.828
303.83
303.831
303.832
303.833
303.834
303.835
303.835
303.836
303.837
303.837
303.837
303.838
303.838
303.838
303.838
303.838
303.839
303.839
303.838
303.838
303.838
303.838
303.838
303.837
303.837
303.836
303.835
303.834
303.833
303.832
303.83
303.828
303.826
303.823
303.82
303.816
303.812
303.807
303.802
303.796
303.789
303.782
303.773
303.764
303.753
303.742
303.729
303.714
303.698
303.68
303.659
303.635
303.604
303.573
303.54
303.502
303.458
303.407
303.349
303.246
303.148
303.018
302.84
302.193
302.299
302.38
302.449
302.507
302.556
302.597
302.635
302.67
302.704
302.734
302.764
302.793
302.822
302.849
302.876
302.901
302.925
302.948
302.971
302.993
303.015
303.037
303.058
303.079
303.1
303.119
303.139
303.158
303.176
303.194
303.212
303.229
303.245
303.262
303.278
303.293
303.309
303.324
303.338
303.352
303.366
303.381
303.395
303.409
303.422
303.435
303.447
303.46
303.472
303.484
303.495
303.506
303.517
303.528
303.539
303.55
303.561
303.571
303.58
303.588
303.597
303.606
303.614
303.622
303.631
303.638
303.646
303.653
303.66
303.667
303.674
303.68
303.686
303.692
303.697
303.702
303.708
303.712
303.717
303.722
303.727
303.731
303.735
303.738
303.741
303.744
303.748
303.751
303.754
303.756
303.758
303.761
303.763
303.765
303.767
303.769
303.77
303.772
303.773
303.774
303.775
303.776
303.777
303.778
303.778
303.779
303.779
303.78
303.78
303.78
303.781
303.781
303.781
303.781
303.781
303.781
303.781
303.781
303.78
303.78
303.78
303.779
303.778
303.778
303.777
303.776
303.774
303.772
303.77
303.768
303.765
303.762
303.759
303.754
303.75
303.744
303.738
303.732
303.724
303.716
303.707
303.696
303.685
303.672
303.657
303.641
303.623
303.602
303.578
303.548
303.516
303.483
303.444
303.399
303.347
303.284
303.185
303.082
302.946
302.751
302.112
302.204
302.283
302.351
302.411
302.463
302.508
302.549
302.587
302.622
302.655
302.687
302.717
302.747
302.775
302.802
302.828
302.853
302.877
302.901
302.924
302.947
302.969
302.991
303.012
303.032
303.053
303.072
303.091
303.11
303.128
303.146
303.164
303.181
303.197
303.213
303.229
303.245
303.26
303.275
303.289
303.303
303.318
303.332
303.346
303.359
303.372
303.385
303.397
303.41
303.422
303.433
303.444
303.455
303.467
303.477
303.488
303.498
303.508
303.518
303.527
303.535
303.544
303.553
303.561
303.569
303.577
303.584
303.592
303.599
303.606
303.612
303.618
303.625
303.63
303.636
303.641
303.646
303.651
303.656
303.661
303.665
303.669
303.673
303.677
303.68
303.683
303.687
303.69
303.692
303.695
303.697
303.7
303.702
303.704
303.706
303.708
303.709
303.711
303.712
303.713
303.714
303.715
303.716
303.717
303.717
303.718
303.718
303.719
303.719
303.719
303.719
303.72
303.72
303.72
303.72
303.72
303.72
303.719
303.719
303.719
303.718
303.718
303.717
303.716
303.715
303.714
303.713
303.711
303.709
303.707
303.704
303.701
303.697
303.693
303.689
303.683
303.678
303.671
303.664
303.655
303.646
303.636
303.624
303.611
303.597
303.581
303.563
303.542
303.517
303.488
303.456
303.422