/*--------------------------------*- C++ -*----------------------------------*\
| =========                 |                                                 |
| \\      /  F ield         | OpenFOAM: The Open Source CFD Toolbox           |
|  \\    /   O peration     | Version:  2106                                  |
|   \\  /    A nd           | Website:  www.openfoam.com                      |
|    \\/     M anipulation  |                                                 |
\*---------------------------------------------------------------------------*/
FoamFile
{
    version     2.0;
    format      ascii;
    arch        "LSB;label=32;scalar=64";
    class       volVectorField;
    location    "0.8";
    object      U;
}
// * * * * * * * * * * * * * * * * * * * * * * * * * * * * * * * * * * * * * //

dimensions      [0 1 -1 0 0 0 0];

internalField   nonuniform List<vector> 
12013
(
(0.100004 -7.23272e-07 0)
(0.100012 -5.87478e-07 0)
(0.100016 6.26591e-07 0)
(0.1 2.88955e-06 0)
(0.0999587 5.80412e-06 0)
(0.0998877 8.77241e-06 0)
(0.0997912 1.12318e-05 0)
(0.0996772 1.28545e-05 0)
(0.0995549 1.36022e-05 0)
(0.0994321 1.36558e-05 0)
(0.0993139 1.32879e-05 0)
(0.0992025 1.27538e-05 0)
(0.0990982 1.22302e-05 0)
(0.0990002 1.18076e-05 0)
(0.0989073 1.15066e-05 0)
(0.0988184 1.13088e-05 0)
(0.0987326 1.11804e-05 0)
(0.0986496 1.10866e-05 0)
(0.0985692 1.09995e-05 0)
(0.0984912 1.09002e-05 0)
(0.098416 1.07769e-05 0)
(0.0983435 1.06238e-05 0)
(0.098274 1.04377e-05 0)
(0.0982076 1.02173e-05 0)
(0.0981445 9.96217e-06 0)
(0.0980848 9.67261e-06 0)
(0.0980286 9.3481e-06 0)
(0.0979762 8.98882e-06 0)
(0.0979275 8.59489e-06 0)
(0.0978828 8.16588e-06 0)
(0.097842 7.70283e-06 0)
(0.0978054 7.20665e-06 0)
(0.0977729 6.67928e-06 0)
(0.0977445 6.12317e-06 0)
(0.0977204 5.54243e-06 0)
(0.0977004 4.94157e-06 0)
(0.0976846 4.32709e-06 0)
(0.0976729 3.70603e-06 0)
(0.0976651 3.08792e-06 0)
(0.0976611 2.48295e-06 0)
(0.0976607 1.90365e-06 0)
(0.0976635 1.36375e-06 0)
(0.0976694 8.79147e-07 0)
(0.0976778 4.67842e-07 0)
(0.0976884 1.50155e-07 0)
(0.0977006 -5.1182e-08 0)
(0.0977138 -1.11317e-07 0)
(0.0977274 -1.29089e-09 0)
(0.0977406 3.10939e-07 0)
(0.0977525 8.61194e-07 0)
(0.0977623 1.69119e-06 0)
(0.0977689 2.84805e-06 0)
(0.0977711 4.38622e-06 0)
(0.0977675 6.36827e-06 0)
(0.0977567 8.86827e-06 0)
(0.0977371 1.1972e-05 0)
(0.0977067 1.57825e-05 0)
(0.0976635 2.04223e-05 0)
(0.0976049 2.60393e-05 0)
(0.0975282 3.28127e-05 0)
(0.0974302 4.09641e-05 0)
(0.0973071 5.07668e-05 0)
(0.0971543 6.25639e-05 0)
(0.0969667 7.67897e-05 0)
(0.0967378 9.40018e-05 0)
(0.0964598 0.000114925 0)
(0.0961234 0.000140512 0)
(0.0957164 0.000172046 0)
(0.0952241 0.000211268 0)
(0.094627 0.000260602 0)
(0.0938999 0.000323481 0)
(0.0930092 0.000404881 0)
(0.0919091 0.000512182 0)
(0.0905363 0.000656587 0)
(0.0888003 0.00085554 0)
(0.0865707 0.00113686 0)
(0.0836536 0.00154601 0)
(0.0797414 0.00216122 0)
(0.0743532 0.00314084 0)
(0.0669155 0.00492817 0)
(0.0585379 0.00952135 0)
(0.100003 -2.22963e-06 0)
(0.100013 -1.83025e-06 0)
(0.100016 1.88094e-06 0)
(0.100002 8.81552e-06 0)
(0.0999604 1.77559e-05 0)
(0.0998901 2.68671e-05 0)
(0.0997943 3.44239e-05 0)
(0.0996808 3.94162e-05 0)
(0.0995589 4.17242e-05 0)
(0.0994364 4.19011e-05 0)
(0.0993183 4.07822e-05 0)
(0.099207 3.915e-05 0)
(0.0991027 3.75475e-05 0)
(0.0990046 3.62514e-05 0)
(0.0989116 3.53279e-05 0)
(0.0988225 3.47211e-05 0)
(0.0987367 3.43263e-05 0)
(0.0986536 3.40378e-05 0)
(0.0985731 3.37707e-05 0)
(0.0984951 3.34665e-05 0)
(0.0984198 3.30898e-05 0)
(0.0983472 3.26217e-05 0)
(0.0982776 3.2053e-05 0)
(0.098211 3.13801e-05 0)
(0.0981477 3.06016e-05 0)
(0.0980878 2.97175e-05 0)
(0.0980314 2.87273e-05 0)
(0.0979787 2.76312e-05 0)
(0.0979297 2.64288e-05 0)
(0.0978846 2.51207e-05 0)
(0.0978434 2.37083e-05 0)
(0.0978063 2.21952e-05 0)
(0.0977732 2.05873e-05 0)
(0.0977443 1.88928e-05 0)
(0.0977194 1.71234e-05 0)
(0.0976987 1.52933e-05 0)
(0.0976821 1.34218e-05 0)
(0.0976695 1.15321e-05 0)
(0.0976607 9.65209e-06 0)
(0.0976556 7.8141e-06 0)
(0.0976541 6.05521e-06 0)
(0.0976557 4.41849e-06 0)
(0.0976602 2.95291e-06 0)
(0.0976672 1.71352e-06 0)
(0.0976763 7.6172e-07 0)
(0.0976869 1.67367e-07 0)
(0.0976985 8.16857e-09 0)
(0.0977104 3.70615e-07 0)
(0.0977217 1.35321e-06 0)
(0.0977318 3.06685e-06 0)
(0.0977397 5.63826e-06 0)
(0.0977442 9.21171e-06 0)
(0.0977444 1.39527e-05 0)
(0.0977387 2.00531e-05 0)
(0.0977259 2.77379e-05 0)
(0.0977042 3.72695e-05 0)
(0.0976718 4.89605e-05 0)
(0.0976267 6.31834e-05 0)
(0.0975663 8.03873e-05 0)
(0.0974881 0.000101116 0)
(0.0973889 0.000126039 0)
(0.097265 0.000155981 0)
(0.0971121 0.000191976 0)
(0.0969251 0.000235329 0)
(0.096698 0.000287709 0)
(0.0964236 0.000351276 0)
(0.0960928 0.000428864 0)
(0.0956947 0.000524249 0)
(0.0952157 0.000642544 0)
(0.0946386 0.000790786 0)
(0.0939412 0.000978847 0)
(0.093095 0.00122084 0)
(0.0920626 0.00153732 0)
(0.0907942 0.00195881 0)
(0.0892238 0.00253133 0)
(0.0872637 0.00332512 0)
(0.0847998 0.00444719 0)
(0.081682 0.00605872 0)
(0.0777428 0.0083978 0)
(0.0730353 0.0117445 0)
(0.0689171 0.0159684 0)
(0.100003 -3.85977e-06 0)
(0.100013 -3.23805e-06 0)
(0.100017 3.08613e-06 0)
(0.100003 1.49592e-05 0)
(0.0999635 3.03024e-05 0)
(0.0998948 4.597e-05 0)
(0.0998006 5.89974e-05 0)
(0.0996885 6.76378e-05 0)
(0.0995677 7.1672e-05 0)
(0.0994459 7.20381e-05 0)
(0.0993282 7.01651e-05 0)
(0.099217 6.73927e-05 0)
(0.0991126 6.46573e-05 0)
(0.0990144 6.24362e-05 0)
(0.0989212 6.08488e-05 0)
(0.098832 5.98022e-05 0)
(0.0987461 5.91192e-05 0)
(0.0986629 5.86202e-05 0)
(0.0985823 5.81598e-05 0)
(0.0985042 5.76387e-05 0)
(0.0984288 5.69962e-05 0)
(0.0983561 5.61991e-05 0)
(0.0982863 5.52319e-05 0)
(0.0982196 5.40884e-05 0)
(0.0981561 5.27664e-05 0)
(0.0980959 5.12655e-05 0)
(0.0980391 4.95854e-05 0)
(0.0979859 4.77258e-05 0)
(0.0979364 4.56866e-05 0)
(0.0978907 4.34689e-05 0)
(0.0978488 4.10756e-05 0)
(0.0978108 3.85131e-05 0)
(0.0977767 3.57913e-05 0)
(0.0977467 3.29248e-05 0)
(0.0977207 2.9933e-05 0)
(0.0976987 2.68419e-05 0)
(0.0976806 2.36836e-05 0)
(0.0976663 2.0499e-05 0)
(0.0976557 1.73351e-05 0)
(0.0976487 1.42481e-05 0)
(0.097645 1.13016e-05 0)
(0.0976443 8.56968e-06 0)
(0.0976464 6.13631e-06 0)
(0.0976508 4.0956e-06 0)
(0.0976571 2.55357e-06 0)
(0.0976647 1.62853e-06 0)
(0.0976731 1.45427e-06 0)
(0.0976817 2.17879e-06 0)
(0.0976896 3.97051e-06 0)
(0.097696 7.0192e-06 0)
(0.0977001 1.15404e-05 0)
(0.0977008 1.77798e-05 0)
(0.097697 2.60192e-05 0)
(0.0976873 3.65852e-05 0)
(0.0976704 4.98576e-05 0)
(0.0976447 6.62827e-05 0)
(0.0976083 8.63869e-05 0)
(0.0975593 0.000110798 0)
(0.0974955 0.000140271 0)
(0.0974141 0.000175717 0)
(0.0973122 0.000218252 0)
(0.0971864 0.000269248 0)
(0.0970327 0.000330414 0)
(0.0968464 0.000403896 0)
(0.096622 0.000492421 0)
(0.096353 0.000599487 0)
(0.0960316 0.000729646 0)
(0.0956484 0.000888886 0)
(0.095192 0.0010852 0)
(0.0946484 0.00132942 0)
(0.0940008 0.00163637 0)
(0.0932283 0.00202673 0)
(0.0923058 0.00252954 0)
(0.0912033 0.00318604 0)
(0.0898868 0.00405482 0)
(0.0883214 0.00521821 0)
(0.08648 0.00678766 0)
(0.0843609 0.00890175 0)
(0.0820314 0.0117014 0)
(0.0797645 0.0152049 0)
(0.0782944 0.0187982 0)
(0.100003 -5.62194e-06 0)
(0.100013 -4.85255e-06 0)
(0.100018 4.15935e-06 0)
(0.100006 2.1186e-05 0)
(0.0999682 4.32702e-05 0)
(0.0999021 6.58974e-05 0)
(0.0998105 8.47926e-05 0)
(0.0997009 9.74125e-05 0)
(0.099582 0.000103407 0)
(0.0994615 0.000104097 0)
(0.0993444 0.000101522 0)
(0.0992334 9.76059e-05 0)
(0.099129 9.37039e-05 0)
(0.0990306 9.05138e-05 0)
(0.0989372 8.82181e-05 0)
(0.0988478 8.66939e-05 0)
(0.0987618 8.56927e-05 0)
(0.0986785 8.49597e-05 0)
(0.0985978 8.42883e-05 0)
(0.0985198 8.35359e-05 0)
(0.0984443 8.26149e-05 0)
(0.0983715 8.14777e-05 0)
(0.0983017 8.01012e-05 0)
(0.0982348 7.8476e-05 0)
(0.098171 7.65989e-05 0)
(0.0981105 7.44697e-05 0)
(0.0980534 7.20877e-05 0)
(0.0979997 6.94527e-05 0)
(0.0979495 6.65652e-05 0)
(0.097903 6.34266e-05 0)
(0.0978602 6.00423e-05 0)
(0.0978212 5.64216e-05 0)
(0.097786 5.2579e-05 0)
(0.0977546 4.85361e-05 0)
(0.097727 4.43216e-05 0)
(0.0977032 3.99728e-05 0)
(0.0976831 3.55374e-05 0)
(0.0976666 3.10735e-05 0)
(0.0976536 2.665e-05 0)
(0.0976439 2.2347e-05 0)
(0.0976373 1.82576e-05 0)
(0.0976335 1.44881e-05 0)
(0.0976322 1.11591e-05 0)
(0.097633 8.40624e-06 0)
(0.0976353 6.38236e-06 0)
(0.0976388 5.25747e-06 0)
(0.0976429 5.22245e-06 0)
(0.0976468 6.4912e-06 0)
(0.0976499 9.30417e-06 0)
(0.0976513 1.39329e-05 0)
(0.0976502 2.06849e-05 0)
(0.0976455 2.99103e-05 0)
(0.0976361 4.20103e-05 0)
(0.0976209 5.74481e-05 0)
(0.0975984 7.67616e-05 0)
(0.0975671 0.00010058 0)
(0.0975254 0.000129644 0)
(0.0974713 0.000164835 0)
(0.0974027 0.000207204 0)
(0.0973172 0.000258019 0)
(0.0972121 0.000318819 0)
(0.0970842 0.000391492 0)
(0.0969301 0.000478365 0)
(0.0967457 0.000582341 0)
(0.0965261 0.000707067 0)
(0.0962661 0.000857173 0)
(0.0959593 0.00103859 0)
(0.0955984 0.00125901 0)
(0.0951751 0.00152848 0)
(0.0946796 0.00186025 0)
(0.0941013 0.00227199 0)
(0.0934285 0.00278735 0)
(0.0926495 0.00343804 0)
(0.0917542 0.00426645 0)
(0.0907378 0.00532819 0)
(0.0896073 0.00669332 0)
(0.0883928 0.00844222 0)
(0.0871655 0.0106477 0)
(0.0860617 0.0133269 0)
(0.0853115 0.0163221 0)
(0.0852033 0.0190362 0)
(0.100003 -7.53625e-06 0)
(0.100013 -6.7297e-06 0)
(0.100019 4.98373e-06 0)
(0.100009 2.73073e-05 0)
(0.0999744 5.64116e-05 0)
(0.099912 8.63776e-05 0)
(0.0998244 0.000111559 0)
(0.0997183 0.000128552 0)
(0.0996022 0.000136826 0)
(0.0994835 0.00013806 0)
(0.0993675 0.000134908 0)
(0.0992569 0.000129896 0)
(0.0991525 0.000124821 0)
(0.099054 0.000120625 0)
(0.0989603 0.000117573 0)
(0.0988708 0.000115523 0)
(0.0987846 0.000114161 0)
(0.0987013 0.000113159 0)
(0.0986207 0.000112249 0)
(0.0985427 0.000111244 0)
(0.0984673 0.000110029 0)
(0.0983946 0.000108539 0)
(0.0983248 0.000106744 0)
(0.0982578 0.000104631 0)
(0.098194 0.000102194 0)
(0.0981332 9.9433e-05 0)
(0.0980757 9.63481e-05 0)
(0.0980216 9.2939e-05 0)
(0.0979708 8.92065e-05 0)
(0.0979236 8.51544e-05 0)
(0.0978798 8.07895e-05 0)
(0.0978396 7.61253e-05 0)
(0.0978031 7.1182e-05 0)
(0.0977701 6.59886e-05 0)
(0.0977407 6.05842e-05 0)
(0.0977148 5.50188e-05 0)
(0.0976924 4.93565e-05 0)
(0.0976734 4.3674e-05 0)
(0.0976575 3.80627e-05 0)
(0.0976446 3.26294e-05 0)
(0.0976346 2.74972e-05 0)
(0.097627 2.28067e-05 0)
(0.0976215 1.87168e-05 0)
(0.0976179 1.5407e-05 0)
(0.0976155 1.30779e-05 0)
(0.097614 1.19536e-05 0)
(0.0976127 1.2285e-05 0)
(0.097611 1.43521e-05 0)
(0.0976082 1.84705e-05 0)
(0.0976035 2.49946e-05 0)
(0.097596 3.43252e-05 0)
(0.0975849 4.69181e-05 0)
(0.0975689 6.32935e-05 0)
(0.097547 8.40505e-05 0)
(0.0975179 0.000109881 0)
(0.0974801 0.000141594 0)
(0.0974322 0.000180134 0)
(0.0973723 0.00022662 0)
(0.0972986 0.000282382 0)
(0.0972088 0.00034901 0)
(0.0971007 0.000428422 0)
(0.0969716 0.000522947 0)
(0.0968184 0.000635434 0)
(0.0966379 0.00076939 0)
(0.0964264 0.000929165 0)
(0.0961799 0.00112019 0)
(0.0958937 0.00134932 0)
(0.0955631 0.00162519 0)
(0.0951831 0.00195883 0)
(0.0947487 0.00236434 0)
(0.0942554 0.00285977 0)
(0.0937003 0.00346816 0)
(0.0930834 0.00421871 0)
(0.0924103 0.00514761 0)
(0.091696 0.00629792 0)
(0.0909707 0.00771679 0)
(0.090288 0.00944651 0)
(0.0897322 0.0115037 0)
(0.0894226 0.0138377 0)
(0.0894977 0.0162602 0)
(0.0900408 0.0183535 0)
(0.100003 -9.62444e-06 0)
(0.100014 -8.93406e-06 0)
(0.100021 5.41826e-06 0)
(0.100013 3.30919e-05 0)
(0.0999823 6.94165e-05 0)
(0.0999247 0.000107063 0)
(0.0998421 0.000138967 0)
(0.0997407 0.000160794 0)
(0.0996283 0.000171766 0)
(0.0995122 0.00017387 0)
(0.0993977 0.000170353 0)
(0.0992878 0.000164355 0)
(0.0991836 0.000158135 0)
(0.0990849 0.00015291 0)
(0.0989911 0.000149051 0)
(0.0989014 0.000146414 0)
(0.0988152 0.000144633 0)
(0.098732 0.000143311 0)
(0.0986515 0.000142123 0)
(0.0985737 0.000140835 0)
(0.0984986 0.000139304 0)
(0.0984262 0.000137448 0)
(0.0983565 0.000135226 0)
(0.0982897 0.00013262 0)
(0.0982259 0.000129624 0)
(0.0981651 0.000126237 0)
(0.0981074 0.000122458 0)
(0.0980529 0.000118289 0)
(0.0980016 0.000113731 0)
(0.0979536 0.00010879 0)
(0.097909 0.000103477 0)
(0.0978677 9.78086e-05 0)
(0.0978297 9.18128e-05 0)
(0.0977951 8.55266e-05 0)
(0.0977638 7.90001e-05 0)
(0.0977357 7.22985e-05 0)
(0.0977108 6.55023e-05 0)
(0.0976889 5.87085e-05 0)
(0.0976699 5.20325e-05 0)
(0.0976535 4.56088e-05 0)
(0.0976396 3.95918e-05 0)
(0.0976277 3.4158e-05 0)
(0.0976177 2.95062e-05 0)
(0.097609 2.58602e-05 0)
(0.0976014 2.34704e-05 0)
(0.0975942 2.2616e-05 0)
(0.0975869 2.36084e-05 0)
(0.0975788 2.67955e-05 0)
(0.0975694 3.25673e-05 0)
(0.0975579 4.13613e-05 0)
(0.0975434 5.36705e-05 0)
(0.097525 7.00537e-05 0)
(0.0975018 9.11467e-05 0)
(0.0974727 0.000117678 0)
(0.0974364 0.000150485 0)
(0.0973918 0.000190541 0)
(0.0973374 0.000238978 0)
(0.0972717 0.000297125 0)
(0.0971931 0.000366549 0)
(0.0970996 0.000449112 0)
(0.0969895 0.000547035 0)
(0.0968606 0.000662983 0)
(0.0967105 0.000800176 0)
(0.096537 0.000962519 0)
(0.0963373 0.00115477 0)
(0.096109 0.00138277 0)
(0.0958496 0.00165367 0)
(0.0955566 0.00197629 0)
(0.0952285 0.0023615 0)
(0.0948645 0.00282266 0)
(0.0944655 0.0033761 0)
(0.0940356 0.00404152 0)
(0.093583 0.00484217 0)
(0.0931227 0.00580439 0)
(0.0926793 0.00695581 0)
(0.0922903 0.008321 0)
(0.0920096 0.00991256 0)
(0.0919074 0.011715 0)
(0.0920643 0.0136598 0)
(0.0925488 0.0155933 0)
(0.0933653 0.0172569 0)
(0.100003 -1.19077e-05 0)
(0.100014 -1.15371e-05 0)
(0.100023 5.30553e-06 0)
(0.100018 3.8276e-05 0)
(0.0999916 8.19256e-05 0)
(0.0999397 0.000127542 0)
(0.0998633 0.000166616 0)
(0.0997677 0.000193809 0)
(0.09966 0.000208001 0)
(0.0995473 0.000211416 0)
(0.0994349 0.000207851 0)
(0.099326 0.000201049 0)
(0.0992221 0.000193758 0)
(0.0991234 0.000187498 0)
(0.0990295 0.00018278 0)
(0.0989398 0.000179484 0)
(0.0988536 0.000177208 0)
(0.0987707 0.000175501 0)
(0.0986906 0.000173979 0)
(0.0986132 0.000172367 0)
(0.0985385 0.00017049 0)
(0.0984665 0.000168248 0)
(0.0983973 0.000165589 0)
(0.0983308 0.000162489 0)
(0.0982672 0.000158939 0)
(0.0982065 0.000154938 0)
(0.0981488 0.000150485 0)
(0.0980941 0.000145583 0)
(0.0980425 0.000140234 0)
(0.0979939 0.000134448 0)
(0.0979485 0.00012824 0)
(0.0979061 0.000121632 0)
(0.0978669 0.00011466 0)
(0.0978306 0.00010737 0)
(0.0977974 9.98267e-05 0)
(0.0977671 9.21087e-05 0)
(0.0977396 8.43153e-05 0)
(0.0977148 7.65652e-05 0)
(0.0976924 6.89991e-05 0)
(0.0976723 6.17794e-05 0)
(0.0976543 5.50937e-05 0)
(0.0976379 4.91546e-05 0)
(0.097623 4.42018e-05 0)
(0.097609 4.05044e-05 0)
(0.0975957 3.83623e-05 0)
(0.0975824 3.811e-05 0)
(0.0975687 4.0119e-05 0)
(0.097554 4.48046e-05 0)
(0.0975376 5.26285e-05 0)
(0.0975188 6.41095e-05 0)
(0.0974969 7.98281e-05 0)
(0.0974711 0.00010044 0)
(0.0974403 0.000126687 0)
(0.0974038 0.000159416 0)
(0.0973604 0.000199594 0)
(0.097309 0.000248335 0)
(0.0972485 0.000306927 0)
(0.0971776 0.000376869 0)
(0.0970949 0.00045991 0)
(0.096999 0.000558106 0)
(0.0968885 0.000673878 0)
(0.0967619 0.000810093 0)
(0.0966177 0.000970156 0)
(0.0964543 0.00115812 0)
(0.0962704 0.00137883 0)
(0.0960651 0.00163807 0)
(0.0958375 0.00194272 0)
(0.0955878 0.00230101 0)
(0.095317 0.00272268 0)
(0.0950279 0.00321912 0)
(0.0947253 0.00380354 0)
(0.0944176 0.00449078 0)
(0.0941175 0.0052969 0)
(0.0938436 0.00623798 0)
(0.093622 0.00732794 0)
(0.0934875 0.00857443 0)
(0.0934836 0.00997227 0)
(0.0936596 0.0114937 0)
(0.0940625 0.0130763 0)
(0.09472 0.014612 0)
(0.0956129 0.0159494 0)
(0.100003 -1.44071e-05 0)
(0.100014 -1.46115e-05 0)
(0.100025 4.4824e-06 0)
(0.100023 4.2582e-05 0)
(0.100002 9.35528e-05 0)
(0.0999565 0.000147362 0)
(0.0998873 0.000194051 0)
(0.0997985 0.000227204 0)
(0.0996964 0.000245246 0)
(0.0995879 0.000250531 0)
(0.0994781 0.000247342 0)
(0.0993707 0.000240005 0)
(0.0992674 0.000231769 0)
(0.099169 0.000224493 0)
(0.0990752 0.000218866 0)
(0.0989856 0.000214829 0)
(0.0988997 0.000211969 0)
(0.0988171 0.000209792 0)
(0.0987376 0.000207866 0)
(0.0986608 0.000205877 0)
(0.0985868 0.000203616 0)
(0.0985155 0.000200964 0)
(0.0984469 0.000197856 0)
(0.098381 0.000194262 0)
(0.0983178 0.000190168 0)
(0.0982575 0.000185572 0)
(0.0981999 0.000180473 0)
(0.0981452 0.000174876 0)
(0.0980934 0.000168787 0)
(0.0980445 0.000162219 0)
(0.0979983 0.00015519 0)
(0.0979551 0.000147732 0)
(0.0979146 0.000139889 0)
(0.0978769 0.000131718 0)
(0.0978418 0.000123298 0)
(0.0978093 0.000114724 0)
(0.0977792 0.000106114 0)
(0.0977514 9.76101e-05 0)
(0.0977256 8.93782e-05 0)
(0.0977017 8.16106e-05 0)
(0.0976795 7.45276e-05 0)
(0.0976585 6.83781e-05 0)
(0.0976385 6.34435e-05 0)
(0.0976191 6.00368e-05 0)
(0.0975999 5.85076e-05 0)
(0.0975804 5.92431e-05 0)
(0.0975602 6.26739e-05 0)
(0.0975386 6.92781e-05 0)
(0.0975151 7.95867e-05 0)
(0.097489 9.41914e-05 0)
(0.0974597 0.000113754 0)
(0.0974264 0.000139016 0)
(0.0973884 0.000170812 0)
(0.0973447 0.000210086 0)
(0.0972946 0.000257911 0)
(0.0972371 0.000315511 0)
(0.0971713 0.000384287 0)
(0.0970963 0.000465852 0)
(0.0970109 0.000562066 0)
(0.0969143 0.000675084 0)
(0.0968055 0.000807407 0)
(0.0966837 0.000961946 0)
(0.0965481 0.00114209 0)
(0.0963981 0.00135178 0)
(0.0962337 0.0015956 0)
(0.096055 0.00187888 0)
(0.0958631 0.00220775 0)
(0.0956597 0.00258922 0)
(0.0954482 0.0030312 0)
(0.0952333 0.00354249 0)
(0.0950224 0.00413252 0)
(0.0948256 0.00481103 0)
(0.0946568 0.00558727 0)
(0.094534 0.00646882 0)
(0.0944802 0.00745957 0)
(0.0945231 0.00855687 0)
(0.0946933 0.00974753 0)
(0.0950216 0.011003 0)
(0.0955325 0.0122747 0)
(0.0962336 0.0134921 0)
(0.0971037 0.0145684 0)
(0.100003 -1.71416e-05 0)
(0.100015 -1.82226e-05 0)
(0.100026 2.79676e-06 0)
(0.100028 4.57437e-05 0)
(0.100013 0.000103917 0)
(0.0999744 0.000166064 0)
(0.099913 0.000220795 0)
(0.0998317 0.000260545 0)
(0.0997362 0.000283158 0)
(0.0996325 0.000290987 0)
(0.099526 0.000288709 0)
(0.0994206 0.000281194 0)
(0.0993184 0.000272198 0)
(0.0992205 0.000263957 0)
(0.0991271 0.000257384 0)
(0.0990379 0.000252522 0)
(0.0989525 0.000248977 0)
(0.0988706 0.000246232 0)
(0.0987917 0.00024382 0)
(0.0987158 0.000241387 0)
(0.0986427 0.000238697 0)
(0.0985722 0.000235606 0)
(0.0985045 0.000232036 0)
(0.0984393 0.000227948 0)
(0.0983769 0.000223324 0)
(0.098317 0.000218159 0)
(0.0982599 0.000212454 0)
(0.0982054 0.000206215 0)
(0.0981535 0.000199451 0)
(0.0981043 0.00019218 0)
(0.0980577 0.000184429 0)
(0.0980136 0.000176237 0)
(0.097972 0.000167657 0)
(0.0979328 0.000158761 0)
(0.097896 0.00014964 0)
(0.0978613 0.000140409 0)
(0.0978287 0.000131206 0)
(0.0977979 0.000122196 0)
(0.0977688 0.000113571 0)
(0.0977411 0.000105553 0)
(0.0977147 9.83954e-05 0)
(0.0976891 9.23828e-05 0)
(0.097664 8.78361e-05 0)
(0.0976392 8.51115e-05 0)
(0.0976141 8.46047e-05 0)
(0.0975885 8.67542e-05 0)
(0.0975617 9.20441e-05 0)
(0.0975334 0.00010101 0)
(0.0975029 0.000114244 0)
(0.0974698 0.000132403 0)
(0.0974334 0.000156215 0)
(0.0973931 0.000186494 0)
(0.0973482 0.000224147 0)
(0.0972981 0.00027019 0)
(0.0972421 0.000325769 0)
(0.0971795 0.000392175 0)
(0.0971097 0.000470871 0)
(0.0970319 0.000563518 0)
(0.0969456 0.000672003 0)
(0.0968503 0.000798477 0)
(0.0967455 0.000945389 0)
(0.0966309 0.00111553 0)
(0.0965067 0.00131208 0)
(0.0963731 0.00153862 0)
(0.0962308 0.00179921 0)
(0.0960813 0.00209839 0)
(0.0959267 0.00244117 0)
(0.0957702 0.002833 0)
(0.0956161 0.00327968 0)
(0.0954705 0.0037872 0)
(0.0953413 0.00436138 0)
(0.0952387 0.00500742 0)
(0.0951755 0.00572918 0)
(0.095167 0.00652819 0)
(0.0952311 0.00740224 0)
(0.0953873 0.00834371 0)
(0.0956554 0.00933756 0)
(0.0960529 0.0103594 0)
(0.0965907 0.0113746 0)
(0.0972683 0.0123385 0)
(0.0980683 0.0132019 0)
(0.100003 -2.01248e-05 0)
(0.100015 -2.24215e-05 0)
(0.100028 1.26008e-07 0)
(0.100033 4.75374e-05 0)
(0.100023 0.000112685 0)
(0.0999922 0.000183229 0)
(0.0999391 0.00024639 0)
(0.0998659 0.000293391 0)
(0.0997774 0.000321361 0)
(0.0996792 0.000332502 0)
(0.0995767 0.000331766 0)
(0.0994739 0.000324514 0)
(0.0993734 0.000315009 0)
(0.0992765 0.000305897 0)
(0.0991839 0.000298365 0)
(0.0990953 0.0002926 0)
(0.0990107 0.000288267 0)
(0.0989296 0.00028485 0)
(0.0988517 0.00028186 0)
(0.0987768 0.000278911 0)
(0.0987048 0.000275739 0)
(0.0986354 0.000272178 0)
(0.0985686 0.000268133 0)
(0.0985045 0.000263555 0)
(0.0984428 0.000258421 0)
(0.0983837 0.000252723 0)
(0.098327 0.000246462 0)
(0.0982728 0.000239647 0)
(0.0982211 0.000232293 0)
(0.0981717 0.000224422 0)
(0.0981247 0.000216069 0)
(0.0980799 0.000207284 0)
(0.0980373 0.000198131 0)
(0.0979967 0.000188697 0)
(0.0979581 0.000179088 0)
(0.0979214 0.000169439 0)
(0.0978862 0.000159907 0)
(0.0978526 0.000150681 0)
(0.0978201 0.00014198 0)
(0.0977887 0.000134054 0)
(0.0977581 0.000127189 0)
(0.0977279 0.000121703 0)
(0.0976979 0.000117955 0)
(0.0976677 0.00011634 0)
(0.097637 0.000117296 0)
(0.0976053 0.000121308 0)
(0.0975723 0.000128905 0)
(0.0975375 0.000140674 0)
(0.0975005 0.000157255 0)
(0.0974607 0.000179359 0)
(0.0974178 0.000207764 0)
(0.0973711 0.000243333 0)
(0.0973203 0.000287019 0)
(0.0972647 0.000339882 0)
(0.097204 0.0004031 0)
(0.0971376 0.000477983 0)
(0.0970652 0.000565997 0)
(0.0969864 0.000668777 0)
(0.0969011 0.00078815 0)
(0.0968091 0.000926156 0)
(0.0967104 0.00108507 0)
(0.0966055 0.00126741 0)
(0.0964949 0.00147598 0)
(0.0963797 0.00171382 0)
(0.0962613 0.00198425 0)
(0.0961419 0.00229084 0)
(0.0960243 0.00263729 0)
(0.0959124 0.00302742 0)
(0.095811 0.00346494 0)
(0.0957263 0.00395327 0)
(0.0956658 0.00449518 0)
(0.0956385 0.00509243 0)
(0.0956549 0.00574515 0)
(0.0957268 0.00645119 0)
(0.0958669 0.00720537 0)
(0.0960879 0.00799858 0)
(0.0964015 0.00881704 0)
(0.0968166 0.00964185 0)
(0.097337 0.0104491 0)
(0.0979593 0.0112114 0)
(0.0986705 0.0119002 0)
(0.100003 -2.33632e-05 0)
(0.100015 -2.72364e-05 0)
(0.10003 -3.60592e-06 0)
(0.100038 4.78117e-05 0)
(0.100033 0.000119614 0)
(0.100009 0.000198523 0)
(0.099964 0.000270443 0)
(0.0998991 0.000325333 0)
(0.099818 0.000359472 0)
(0.099726 0.000374748 0)
(0.0996281 0.000376261 0)
(0.0995285 0.00036979 0)
(0.0994302 0.000360094 0)
(0.099335 0.000350256 0)
(0.0992435 0.000341782 0)
(0.099156 0.000335058 0)
(0.0990725 0.000329842 0)
(0.0989925 0.000325653 0)
(0.0989158 0.000321994 0)
(0.0988421 0.000318456 0)
(0.0987713 0.000314751 0)
(0.0987031 0.00031069 0)
(0.0986375 0.000306162 0)
(0.0985744 0.000301105 0)
(0.0985136 0.00029549 0)
(0.0984553 0.000289306 0)
(0.0983992 0.000282556 0)
(0.0983454 0.000275249 0)
(0.0982938 0.000267408 0)
(0.0982444 0.000259061 0)
(0.0981969 0.000250254 0)
(0.0981515 0.000241045 0)
(0.0981078 0.000231515 0)
(0.098066 0.000221763 0)
(0.0980257 0.000211915 0)
(0.0979868 0.000202121 0)
(0.0979492 0.000192562 0)
(0.0979126 0.00018345 0)
(0.0978769 0.000175028 0)
(0.0978418 0.000167574 0)
(0.0978071 0.000161404 0)
(0.0977725 0.000156867 0)
(0.0977377 0.000154354 0)
(0.0977023 0.000154296 0)
(0.0976661 0.000157169 0)
(0.0976288 0.000163491 0)
(0.0975899 0.000173832 0)
(0.0975491 0.000188814 0)
(0.097506 0.000209117 0)
(0.0974603 0.000235482 0)
(0.0974116 0.00026872 0)
(0.0973594 0.000309717 0)
(0.0973036 0.000359445 0)
(0.0972437 0.000418966 0)
(0.0971795 0.000489447 0)
(0.0971109 0.000572169 0)
(0.0970375 0.000668534 0)
(0.0969596 0.000780084 0)
(0.0968771 0.000908498 0)
(0.0967903 0.00105561 0)
(0.0966998 0.00122341 0)
(0.0966063 0.00141405 0)
(0.0965109 0.00162979 0)
(0.0964151 0.00187306 0)
(0.096321 0.00214633 0)
(0.0962309 0.00245211 0)
(0.0961481 0.00279284 0)
(0.0960766 0.00317078 0)
(0.096021 0.00358785 0)
(0.0959869 0.00404538 0)
(0.0959808 0.00454391 0)
(0.09601 0.00508286 0)
(0.0960824 0.00566015 0)
(0.0962064 0.00627185 0)
(0.0963903 0.00691184 0)
(0.0966417 0.00757143 0)
(0.0969669 0.00823927 0)
(0.0973697 0.00890142 0)
(0.0978506 0.00954184 0)
(0.0984053 0.0101435 0)
(0.0990247 0.0106898 0)
(0.100003 -2.68549e-05 0)
(0.100015 -3.26667e-05 0)
(0.100031 -8.41684e-06 0)
(0.100042 4.65086e-05 0)
(0.100041 0.000124578 0)
(0.100024 0.000211742 0)
(0.0999866 0.000292669 0)
(0.0999297 0.000356029 0)
(0.0998562 0.000397125 0)
(0.0997707 0.000417374 0)
(0.0996779 0.000421885 0)
(0.0995822 0.000416771 0)
(0.0994868 0.000407262 0)
(0.0993937 0.000396899 0)
(0.099304 0.000387549 0)
(0.099218 0.000379843 0)
(0.0991358 0.000373678 0)
(0.0990572 0.000368632 0)
(0.0989818 0.000364223 0)
(0.0989095 0.000360033 0)
(0.0988401 0.000355751 0)
(0.0987732 0.00035117 0)
(0.0987088 0.000346159 0)
(0.0986468 0.000340646 0)
(0.098587 0.000334593 0)
(0.0985295 0.000327988 0)
(0.098474 0.000320832 0)
(0.0984206 0.00031314 0)
(0.0983691 0.000304939 0)
(0.0983195 0.000296268 0)
(0.0982717 0.00028718 0)
(0.0982255 0.00027775 0)
(0.0981808 0.000268069 0)
(0.0981375 0.000258254 0)
(0.0980955 0.000248446 0)
(0.0980545 0.000238817 0)
(0.0980144 0.000229567 0)
(0.0979749 0.000220931 0)
(0.097936 0.000213175 0)
(0.0978973 0.000206602 0)
(0.0978586 0.000201552 0)
(0.0978196 0.000198404 0)
(0.0977802 0.000197574 0)
(0.0977399 0.000199524 0)
(0.0976986 0.000204754 0)
(0.0976559 0.000213812 0)
(0.0976116 0.000227293 0)
(0.0975654 0.000245841 0)
(0.097517 0.000270156 0)
(0.0974661 0.000300992 0)
(0.0974124 0.000339167 0)
(0.0973559 0.000385563 0)
(0.0972962 0.000441134 0)
(0.0972333 0.000506909 0)
(0.0971671 0.000583998 0)
(0.0970977 0.0006736 0)
(0.097025 0.000776998 0)
(0.0969495 0.000895569 0)
(0.0968715 0.00103078 0)
(0.0967916 0.00118418 0)
(0.0967107 0.00135741 0)
(0.0966298 0.00155213 0)
(0.0965503 0.00177009 0)
(0.0964741 0.00201298 0)
(0.0964032 0.00228245 0)
(0.0963404 0.00258004 0)
(0.0962887 0.00290704 0)
(0.0962518 0.00326441 0)
(0.0962339 0.00365266 0)
(0.0962396 0.00407166 0)
(0.0962741 0.00452046 0)
(0.0963428 0.00499714 0)
(0.0964513 0.00549858 0)
(0.0966052 0.00602033 0)
(0.0968094 0.00655646 0)
(0.0970682 0.00709956 0)
(0.0973844 0.00764081 0)
(0.0977592 0.0081702 0)
(0.0981913 0.00867706 0)
(0.098677 0.00915065 0)
(0.0992097 0.00958121 0)
(0.100003 -3.05886e-05 0)
(0.100015 -3.86848e-05 0)
(0.100032 -1.42637e-05 0)
(0.100045 4.36686e-05 0)
(0.100048 0.000127586 0)
(0.100036 0.000222824 0)
(0.100006 0.000312917 0)
(0.0999564 0.000385238 0)
(0.0998903 0.000434011 0)
(0.0998114 0.000460037 0)
(0.0997243 0.000468297 0)
(0.0996331 0.00046515 0)
(0.0995412 0.000456258 0)
(0.0994508 0.000445627 0)
(0.0993633 0.000435523 0)
(0.0992792 0.000426861 0)
(0.0991987 0.000419717 0)
(0.0991217 0.000413761 0)
(0.0990479 0.000408547 0)
(0.0989771 0.00040366 0)
(0.0989091 0.000398776 0)
(0.0988436 0.000393669 0)
(0.0987804 0.000388195 0)
(0.0987195 0.000382267 0)
(0.0986606 0.00037584 0)
(0.0986038 0.000368899 0)
(0.0985489 0.000361447 0)
(0.0984957 0.000353502 0)
(0.0984443 0.000345097 0)
(0.0983945 0.000336281 0)
(0.0983461 0.00032712 0)
(0.0982991 0.000317699 0)
(0.0982532 0.000308127 0)
(0.0982084 0.000298534 0)
(0.0981645 0.000289082 0)
(0.0981214 0.000279958 0)
(0.0980787 0.000271383 0)
(0.0980364 0.00026361 0)
(0.0979942 0.000256928 0)
(0.0979519 0.00025166 0)
(0.0979093 0.000248166 0)
(0.0978662 0.000246848 0)
(0.0978224 0.000248142 0)
(0.0977775 0.000252528 0)
(0.0977314 0.000260524 0)
(0.0976839 0.000272693 0)
(0.0976348 0.000289641 0)
(0.0975838 0.000312019 0)
(0.0975308 0.000340525 0)
(0.0974756 0.000375905 0)
(0.0974181 0.000418955 0)
(0.0973582 0.000470525 0)
(0.0972959 0.000531518 0)
(0.0972313 0.000602889 0)
(0.0971645 0.000685652 0)
(0.0970957 0.000780874 0)
(0.0970252 0.00088967 0)
(0.0969536 0.00101321 0)
(0.0968814 0.00115268 0)
(0.0968096 0.00130931 0)
(0.0967391 0.00148433 0)
(0.0966712 0.00167894 0)
(0.0966075 0.0018943 0)
(0.0965498 0.00213145 0)
(0.0965003 0.00239129 0)
(0.0964615 0.0026745 0)
(0.0964361 0.00298145 0)
(0.0964275 0.00331216 0)
(0.0964388 0.00366613 0)
(0.0964739 0.0040423 0)
(0.0965365 0.00443891 0)
(0.0966304 0.00485342 0)
(0.0967593 0.00528247 0)
(0.0969267 0.00572177 0)
(0.0971351 0.00616618 0)
(0.0973868 0.00660974 0)
(0.0976825 0.00704581 0)
(0.0980221 0.00746735 0)
(0.0984039 0.00786719 0)
(0.0988245 0.00823852 0)
(0.0992791 0.00857539 0)
(0.100003 -3.45466e-05 0)
(0.100015 -4.52385e-05 0)
(0.100032 -2.10519e-05 0)
(0.100046 3.94204e-05 0)
(0.100053 0.000128767 0)
(0.100045 0.000231851 0)
(0.100021 0.000331177 0)
(0.0999785 0.000412833 0)
(0.0999194 0.000469896 0)
(0.0998471 0.000502424 0)
(0.0997658 0.000515151 0)
(0.0996795 0.000514584 0)
(0.0995916 0.000506775 0)
(0.0995045 0.00049619 0)
(0.0994197 0.000485513 0)
(0.099338 0.000475979 0)
(0.0992596 0.000467878 0)
(0.0991844 0.000461003 0)
(0.0991123 0.000454966 0)
(0.0990431 0.000449369 0)
(0.0989765 0.000443885 0)
(0.0989123 0.000438274 0)
(0.0988503 0.000432379 0)
(0.0987904 0.000426102 0)
(0.0987324 0.000419393 0)
(0.0986762 0.00041223 0)
(0.0986217 0.00040462 0)
(0.0985687 0.000396583 0)
(0.0985171 0.000388163 0)
(0.0984669 0.000379416 0)
(0.0984178 0.000370421 0)
(0.0983697 0.000361276 0)
(0.0983226 0.000352104 0)
(0.0982762 0.000343053 0)
(0.0982303 0.000334298 0)
(0.0981848 0.000326044 0)
(0.0981396 0.00031853 0)
(0.0980943 0.000312026 0)
(0.0980489 0.000306835 0)
(0.0980031 0.000303299 0)
(0.0979568 0.000301792 0)
(0.0979098 0.000302728 0)
(0.0978618 0.000306556 0)
(0.0978127 0.000313765 0)
(0.0977623 0.000324878 0)
(0.0977105 0.000340458 0)
(0.0976572 0.000361107 0)
(0.0976021 0.000387462 0)
(0.0975454 0.0004202 0)
(0.0974868 0.000460034 0)
(0.0974264 0.000507715 0)
(0.0973644 0.000564027 0)
(0.0973007 0.000629792 0)
(0.0972356 0.000705859 0)
(0.0971695 0.000793106 0)
(0.0971026 0.000892434 0)
(0.0970355 0.00100476 0)
(0.0969689 0.00113099 0)
(0.0969035 0.00127203 0)
(0.0968403 0.00142877 0)
(0.0967804 0.00160202 0)
(0.0967253 0.00179254 0)
(0.0966764 0.00200094 0)
(0.0966355 0.0022277 0)
(0.0966046 0.0024731 0)
(0.0965859 0.00273716 0)
(0.0965818 0.00301959 0)
(0.0965948 0.00331972 0)
(0.0966275 0.00363649 0)
(0.0966826 0.00396832 0)
(0.0967628 0.00431313 0)
(0.0968705 0.00466829 0)
(0.0970081 0.00503058 0)
(0.0971774 0.00539627 0)
(0.0973797 0.00576114 0)
(0.0976157 0.00612056 0)
(0.0978854 0.00646967 0)
(0.0981878 0.00680351 0)
(0.0985213 0.00711727 0)
(0.098883 0.00740653 0)
(0.0992695 0.00766755 0)
(0.100003 -3.87055e-05 0)
(0.100015 -5.22583e-05 0)
(0.100031 -2.86505e-05 0)
(0.100047 3.39558e-05 0)
(0.100055 0.000128342 0)