/*--------------------------------*- C++ -*----------------------------------*\
| =========                 |                                                 |
| \\      /  F ield         | OpenFOAM: The Open Source CFD Toolbox           |
|  \\    /   O peration     | Version:  2106                                  |
|   \\  /    A nd           | Website:  www.openfoam.com                      |
|    \\/     M anipulation  |                                                 |
\*---------------------------------------------------------------------------*/
FoamFile
{
    version     2.0;
    format      ascii;
    arch        "LSB;label=32;scalar=64";
    class       volVectorField;
    location    "0.8";
    object      U;
}
// * * * * * * * * * * * * * * * * * * * * * * * * * * * * * * * * * * * * * //

dimensions      [0 1 -1 0 0 0 0];

internalField   nonuniform List<vector> 
12013
(
(0.0999986 6.0099e-07 0)
(0.0999884 1.80377e-06 0)
(0.0999615 3.86546e-06 0)
(0.0999097 6.77512e-06 0)
(0.0998263 1.01999e-05 0)
(0.09971 1.35887e-05 0)
(0.0995653 1.6416e-05 0)
(0.0994007 1.8381e-05 0)
(0.0992257 1.94669e-05 0)
(0.0990481 1.9868e-05 0)
(0.0988729 1.9868e-05 0)
(0.0987022 1.97272e-05 0)
(0.0985362 1.96271e-05 0)
(0.098374 1.96597e-05 0)
(0.098214 1.98474e-05 0)
(0.0980551 2.01735e-05 0)
(0.0978964 2.06046e-05 0)
(0.0977373 2.11078e-05 0)
(0.0975773 2.16582e-05 0)
(0.0974163 2.22391e-05 0)
(0.0972543 2.28428e-05 0)
(0.0970912 2.34664e-05 0)
(0.096927 2.41118e-05 0)
(0.0967616 2.47814e-05 0)
(0.0965949 2.548e-05 0)
(0.0964269 2.62117e-05 0)
(0.0962576 2.69814e-05 0)
(0.0960866 2.77932e-05 0)
(0.0959139 2.86512e-05 0)
(0.0957394 2.9559e-05 0)
(0.0955629 3.05204e-05 0)
(0.0953842 3.15393e-05 0)
(0.0952032 3.26184e-05 0)
(0.0950196 3.37619e-05 0)
(0.0948332 3.49726e-05 0)
(0.094644 3.62549e-05 0)
(0.0944517 3.76124e-05 0)
(0.094256 3.90495e-05 0)
(0.0940569 4.05718e-05 0)
(0.093854 4.2185e-05 0)
(0.0936473 4.3895e-05 0)
(0.0934363 4.57107e-05 0)
(0.0932209 4.76405e-05 0)
(0.0930008 4.9695e-05 0)
(0.0927757 5.18864e-05 0)
(0.0925453 5.42294e-05 0)
(0.0923091 5.674e-05 0)
(0.0920667 5.94381e-05 0)
(0.0918178 6.2346e-05 0)
(0.0915617 6.54906e-05 0)
(0.0912979 6.89023e-05 0)
(0.0910257 7.2618e-05 0)
(0.0907442 7.66801e-05 0)
(0.0904527 8.114e-05 0)
(0.09015 8.60568e-05 0)
(0.0898351 9.15034e-05 0)
(0.0895065 9.75657e-05 0)
(0.0891627 0.000104348 0)
(0.0888018 0.000111978 0)
(0.0884216 0.00012061 0)
(0.0880195 0.000130437 0)
(0.0875926 0.000141696 0)
(0.0871372 0.000154691 0)
(0.0866488 0.000169802 0)
(0.0861221 0.000187522 0)
(0.0855505 0.000208492 0)
(0.0849259 0.00023356 0)
(0.084238 0.000263863 0)
(0.0834736 0.000300951 0)
(0.0826159 0.000346977 0)
(0.0816428 0.000404984 0)
(0.0805245 0.000479364 0)
(0.079221 0.000576583 0)
(0.0776764 0.000706362 0)
(0.0758119 0.000883634 0)
(0.0735148 0.00113181 0)
(0.0706196 0.00148838 0)
(0.0668676 0.00201642 0)
(0.0618627 0.0028416 0)
(0.0551539 0.00431431 0)
(0.0476964 0.00801617 0)
(0.0999988 1.82831e-06 0)
(0.0999888 5.51248e-06 0)
(0.0999623 1.18275e-05 0)
(0.099911 2.07463e-05 0)
(0.0998283 3.12504e-05 0)
(0.0997127 4.16513e-05 0)
(0.0995687 5.03355e-05 0)
(0.0994048 5.63778e-05 0)
(0.0992302 5.97221e-05 0)
(0.099053 6.09649e-05 0)
(0.098878 6.0973e-05 0)
(0.0987075 6.05466e-05 0)
(0.0985417 6.02418e-05 0)
(0.0983795 6.03416e-05 0)
(0.0982196 6.09167e-05 0)
(0.0980609 6.19149e-05 0)
(0.0979024 6.32352e-05 0)
(0.0977434 6.4777e-05 0)
(0.0975836 6.64633e-05 0)
(0.0974229 6.82445e-05 0)
(0.0972611 7.00952e-05 0)
(0.0970982 7.20081e-05 0)
(0.0969343 7.3987e-05 0)
(0.0967691 7.60418e-05 0)
(0.0966027 7.81852e-05 0)
(0.0964351 8.04308e-05 0)
(0.0962659 8.27925e-05 0)
(0.0960952 8.52834e-05 0)
(0.0959229 8.7916e-05 0)
(0.0957486 9.07017e-05 0)
(0.0955724 9.36521e-05 0)
(0.095394 9.67777e-05 0)
(0.0952132 0.000100089 0)
(0.0950299 0.000103597 0)
(0.0948439 0.000107311 0)
(0.0946549 0.000111245 0)
(0.0944629 0.000115408 0)
(0.0942676 0.000119817 0)
(0.0940688 0.000124486 0)
(0.0938663 0.000129433 0)
(0.0936599 0.000134677 0)
(0.0934494 0.000140245 0)
(0.0932344 0.000146161 0)
(0.0930148 0.00015246 0)
(0.0927901 0.000159178 0)
(0.0925602 0.000166359 0)
(0.0923246 0.000174054 0)
(0.0920828 0.000182322 0)
(0.0918346 0.000191232 0)
(0.0915792 0.000200865 0)
(0.0913162 0.000211315 0)
(0.0910448 0.000222693 0)
(0.0907643 0.000235129 0)
(0.0904739 0.000248778 0)
(0.0901725 0.000263823 0)
(0.089859 0.000280482 0)
(0.089532 0.000299019 0)
(0.0891901 0.000319748 0)
(0.0888313 0.000343054 0)
(0.0884537 0.000369407 0)
(0.0880547 0.000399386 0)
(0.0876314 0.000433711 0)
(0.0871804 0.000473288 0)
(0.0866974 0.000519261 0)
(0.0861775 0.000573102 0)
(0.0856143 0.00063672 0)
(0.0850005 0.000712625 0)
(0.0843264 0.000804167 0)
(0.0835804 0.000915883 0)
(0.0827475 0.00105402 0)
(0.0818083 0.00122732 0)
(0.0807377 0.00144823 0)
(0.0795031 0.00173477 0)
(0.0780607 0.00211343 0)
(0.076353 0.00262362 0)
(0.0743041 0.00332445 0)
(0.0718166 0.00430393 0)
(0.0687643 0.00569064 0)
(0.0650114 0.00766729 0)
(0.0606191 0.0104305 0)
(0.0567297 0.0137977 0)
(0.0999989 3.09011e-06 0)
(0.0999892 9.39839e-06 0)
(0.0999633 2.02056e-05 0)
(0.099913 3.54922e-05 0)
(0.0998317 5.35224e-05 0)
(0.0997178 7.14052e-05 0)
(0.0995756 8.63671e-05 0)
(0.0994132 9.68092e-05 0)
(0.09924 0.000102621 0)
(0.0990636 0.000104815 0)
(0.0988893 0.000104874 0)
(0.0987191 0.00010417 0)
(0.0985535 0.00010366 0)
(0.0983916 0.000103833 0)
(0.0982319 0.000104816 0)
(0.0980734 0.000106521 0)
(0.0979152 0.000108779 0)
(0.0977566 0.000111419 0)
(0.0975973 0.000114309 0)
(0.097437 0.000117364 0)
(0.0972758 0.00012054 0)
(0.0971134 0.000123826 0)
(0.09695 0.000127226 0)
(0.0967855 0.000130759 0)
(0.0966197 0.000134444 0)
(0.0964525 0.000138306 0)
(0.096284 0.000142368 0)
(0.0961139 0.000146653 0)
(0.0959421 0.000151181 0)
(0.0957684 0.000155972 0)
(0.0955928 0.000161046 0)
(0.0954149 0.000166421 0)
(0.0952348 0.000172115 0)
(0.095052 0.000178146 0)
(0.0948666 0.000184532 0)
(0.0946783 0.000191293 0)
(0.094487 0.000198449 0)
(0.0942923 0.000206026 0)
(0.0940943 0.000214047 0)
(0.0938925 0.000222545 0)
(0.0936869 0.000231554 0)
(0.0934771 0.000241115 0)
(0.093263 0.000251275 0)
(0.0930442 0.000262089 0)
(0.0928206 0.00027362 0)
(0.0925917 0.000285943 0)
(0.0923571 0.000299145 0)
(0.0921166 0.000313325 0)
(0.0918696 0.000328603 0)
(0.0916157 0.000345113 0)
(0.0913542 0.000363018 0)
(0.0910846 0.000382505 0)
(0.090806 0.000403794 0)
(0.0905177 0.000427146 0)
(0.0902186 0.000452871 0)
(0.0899078 0.000481338 0)
(0.0895839 0.000512986 0)
(0.0892454 0.000548347 0)
(0.0888908 0.000588063 0)
(0.0885179 0.000632919 0)
(0.0881246 0.000683877 0)
(0.087708 0.00074213 0)
(0.0872651 0.000809169 0)
(0.0867919 0.000886873 0)
(0.0862841 0.000977635 0)
(0.0857361 0.00108454 0)
(0.0851415 0.00121161 0)
(0.0844921 0.00136413 0)
(0.0837784 0.00154919 0)
(0.0829883 0.00177637 0)
(0.0821072 0.00205879 0)
(0.0811172 0.00241465 0)
(0.0799963 0.0028694 0)
(0.0787186 0.0034588 0)
(0.0772547 0.00423297 0)
(0.0755746 0.0052609 0)
(0.0736558 0.00663312 0)
(0.0714977 0.00845648 0)
(0.0691601 0.0108275 0)
(0.0668783 0.01372 0)
(0.0652647 0.0165598 0)
(0.0999989 4.37814e-06 0)
(0.0999896 1.34328e-05 0)
(0.0999646 2.89309e-05 0)
(0.0999159 5.08987e-05 0)
(0.0998369 7.68674e-05 0)
(0.0997258 0.000102693 0)
(0.0995864 0.000124377 0)
(0.0994267 0.000139593 0)
(0.0992556 0.000148147 0)
(0.0990808 0.00015147 0)
(0.0989075 0.000151675 0)
(0.098738 0.000150738 0)
(0.0985728 0.00015004 0)
(0.0984111 0.000150297 0)
(0.0982518 0.000151702 0)
(0.0980937 0.000154141 0)
(0.097936 0.000157375 0)
(0.097778 0.000161163 0)
(0.0976194 0.000165316 0)
(0.0974599 0.000169713 0)
(0.0972995 0.000174291 0)
(0.0971381 0.000179032 0)
(0.0969756 0.000183942 0)
(0.0968119 0.000189047 0)
(0.096647 0.000194375 0)
(0.0964809 0.000199961 0)
(0.0963132 0.000205837 0)
(0.0961441 0.000212035 0)
(0.0959732 0.000218584 0)
(0.0958005 0.000225515 0)
(0.0956257 0.000232854 0)
(0.0954489 0.000240626 0)
(0.0952696 0.000248859 0)
(0.0950879 0.000257576 0)
(0.0949035 0.000266806 0)
(0.0947162 0.000276575 0)
(0.0945259 0.000286914 0)
(0.0943323 0.000297856 0)
(0.0941354 0.00030944 0)
(0.0939348 0.000321708 0)
(0.0937304 0.000334712 0)
(0.0935219 0.000348508 0)
(0.0933091 0.000363165 0)
(0.0930918 0.00037876 0)
(0.0928697 0.000395385 0)
(0.0926424 0.000413146 0)
(0.0924097 0.000432166 0)
(0.092171 0.000452588 0)
(0.0919261 0.000474579 0)
(0.0916744 0.000498333 0)
(0.0914154 0.000524079 0)
(0.0911484 0.00055208 0)
(0.0908728 0.00058265 0)
(0.0905878 0.000616157 0)
(0.0902925 0.000653034 0)
(0.0899858 0.000693799 0)
(0.0896667 0.000739067 0)
(0.0893337 0.000789578 0)
(0.0889853 0.000846225 0)
(0.0886198 0.00091009 0)
(0.0882351 0.000982497 0)
(0.0878288 0.00106508 0)
(0.0873982 0.00115985 0)
(0.0869399 0.00126934 0)
(0.0864504 0.00139674 0)
(0.085925 0.00154612 0)
(0.0853587 0.00172268 0)
(0.0847455 0.00193321 0)
(0.0840783 0.00218655 0)
(0.0833491 0.00249441 0)
(0.0825489 0.00287236 0)
(0.081668 0.00334117 0)
(0.0806966 0.00392857 0)
(0.0796263 0.00467122 0)
(0.0784536 0.00561645 0)
(0.0771852 0.00682234 0)
(0.0758481 0.00835236 0)
(0.0745038 0.0102571 0)
(0.0732688 0.0125296 0)
(0.0723358 0.0150033 0)
(0.0719359 0.0171373 0)
(0.099999 5.69245e-06 0)
(0.0999901 1.75777e-05 0)
(0.0999662 3.79104e-05 0)
(0.0999197 6.68066e-05 0)
(0.0998438 0.000101069 0)
(0.0997366 0.000135273 0)
(0.0996014 0.000164146 0)
(0.0994455 0.000184571 0)
(0.0992776 0.000196227 0)
(0.0991051 0.000200939 0)
(0.0989333 0.000201459 0)
(0.0987647 0.00020038 0)
(0.0986001 0.000199536 0)
(0.098439 0.000199894 0)
(0.0982801 0.000201731 0)
(0.0981227 0.000204917 0)
(0.0979657 0.000209151 0)
(0.0978086 0.000214122 0)
(0.097651 0.000219587 0)
(0.0974927 0.000225387 0)
(0.0973334 0.000231438 0)
(0.0971733 0.000237714 0)
(0.097012 0.000244224 0)
(0.0968497 0.000250997 0)
(0.0966862 0.000258072 0)
(0.0965213 0.000265492 0)
(0.096355 0.0002733 0)
(0.0961872 0.000281536 0)
(0.0960176 0.00029024 0)
(0.0958463 0.000299449 0)
(0.0956729 0.000309198 0)
(0.0954973 0.000319521 0)
(0.0953195 0.000330452 0)
(0.0951391 0.000342025 0)
(0.0949561 0.000354273 0)
(0.0947703 0.000367233 0)
(0.0945815 0.000380946 0)
(0.0943895 0.000395454 0)
(0.0941941 0.000410808 0)
(0.0939952 0.000427064 0)
(0.0937925 0.000444288 0)
(0.0935859 0.000462556 0)
(0.0933751 0.000481956 0)
(0.0931599 0.00050259 0)
(0.09294 0.000524577 0)
(0.092715 0.000548055 0)
(0.0924848 0.000573184 0)
(0.0922489 0.00060015 0)
(0.0920069 0.00062917 0)
(0.0917583 0.000660494 0)
(0.0915028 0.000694416 0)
(0.0912396 0.000731278 0)
(0.0909683 0.000771482 0)
(0.090688 0.000815497 0)
(0.0903979 0.00086388 0)
(0.0900972 0.000917286 0)
(0.0897848 0.000976497 0)
(0.0894595 0.00104244 0)
(0.08912 0.00111625 0)
(0.0887647 0.00119925 0)
(0.088392 0.0012931 0)
(0.088 0.00139979 0)
(0.0875862 0.00152177 0)
(0.0871484 0.00166209 0)
(0.0866835 0.00182451 0)
(0.0861885 0.00201379 0)
(0.0856599 0.00223589 0)
(0.0850938 0.0024984 0)
(0.0844864 0.00281099 0)
(0.0838338 0.00318603 0)
(0.0831327 0.00363935 0)
(0.0823812 0.00419111 0)
(0.0815799 0.00486671 0)
(0.0807345 0.00569723 0)
(0.079859 0.00671899 0)
(0.0789808 0.00797015 0)
(0.0781468 0.0094817 0)
(0.07743 0.0112575 0)
(0.0769308 0.0132374 0)
(0.0767616 0.0152377 0)
(0.0769792 0.0168828 0)
(0.099999 7.02713e-06 0)
(0.0999906 2.17842e-05 0)
(0.0999682 4.70268e-05 0)
(0.0999243 8.30118e-05 0)
(0.0998525 0.000125846 0)
(0.0997503 0.000168831 0)
(0.0996205 0.000205375 0)
(0.0994697 0.00023151 0)
(0.099306 0.000246721 0)
(0.0991366 0.000253185 0)
(0.0989669 0.000254272 0)
(0.0987998 0.000253202 0)
(0.0986361 0.000252288 0)
(0.0984756 0.000252773 0)
(0.0983175 0.000255046 0)
(0.0981609 0.000258977 0)
(0.0980049 0.000264217 0)
(0.097849 0.000270392 0)
(0.0976928 0.000277203 0)
(0.0975359 0.000284455 0)
(0.0973783 0.000292043 0)
(0.0972198 0.000299931 0)
(0.0970603 0.000308127 0)
(0.0968997 0.000316666 0)
(0.0967379 0.000325594 0)
(0.0965749 0.000334963 0)
(0.0964104 0.000344825 0)
(0.0962443 0.000355228 0)
(0.0960765 0.000366223 0)
(0.0959069 0.000377853 0)
(0.0957353 0.000390162 0)
(0.0955616 0.000403192 0)
(0.0953856 0.000416985 0)
(0.0952071 0.000431582 0)
(0.095026 0.000447025 0)
(0.0948421 0.000463359 0)
(0.0946553 0.000480634 0)
(0.0944653 0.000498904 0)
(0.0942721 0.000518231 0)
(0.0940755 0.000538685 0)
(0.0938752 0.000560347 0)
(0.0936711 0.000583311 0)
(0.0934629 0.000607685 0)
(0.0932504 0.000633595 0)
(0.0930334 0.000661189 0)
(0.0928116 0.000690634 0)
(0.0925848 0.000722129 0)
(0.0923525 0.0007559 0)
(0.0921144 0.000792211 0)
(0.0918701 0.000831369 0)
(0.0916193 0.000873729 0)
(0.0913612 0.000919706 0)
(0.0910955 0.000969784 0)
(0.0908215 0.00102453 0)
(0.0905384 0.0010846 0)
(0.0902456 0.00115079 0)
(0.0899421 0.00122402 0)
(0.0896269 0.00130537 0)
(0.0892991 0.00139617 0)
(0.0889573 0.00149797 0)
(0.0886003 0.00161264 0)
(0.0882266 0.00174247 0)
(0.0878346 0.00189019 0)
(0.0874227 0.00205917 0)
(0.086989 0.00225349 0)
(0.0865318 0.00247821 0)
(0.0860493 0.00273953 0)
(0.0855402 0.00304512 0)
(0.0850033 0.00340443 0)
(0.0844387 0.00382911 0)
(0.083848 0.00433336 0)
(0.0832353 0.00493428 0)
(0.0826088 0.00565191 0)
(0.0819826 0.0065086 0)
(0.0813789 0.00752714 0)
(0.0808316 0.00872629 0)
(0.0803879 0.0101122 0)
(0.0801082 0.0116634 0)
(0.0800595 0.0133089 0)
(0.080294 0.0149024 0)
(0.0808042 0.0162114 0)
(0.0999991 8.37232e-06 0)
(0.0999912 2.59976e-05 0)
(0.0999704 5.61449e-05 0)
(0.0999297 9.92751e-05 0)
(0.0998627 0.000150867 0)
(0.0997666 0.000202979 0)
(0.0996435 0.000247686 0)
(0.0994989 0.000280099 0)
(0.0993405 0.000299422 0)
(0.0991752 0.00030811 0)
(0.0990083 0.000310114 0)
(0.098843 0.000309278 0)
(0.0986805 0.000308408 0)
(0.0985211 0.000309061 0)
(0.098364 0.000311768 0)
(0.0982085 0.000316429 0)
(0.0980539 0.000322661 0)
(0.0978995 0.00033004 0)
(0.097745 0.000338217 0)
(0.0975901 0.000346959 0)
(0.0974345 0.000356138 0)
(0.0972782 0.000365707 0)
(0.0971208 0.000375674 0)
(0.0969624 0.000386075 0)
(0.0968029 0.000396964 0)
(0.096642 0.000408397 0)
(0.0964798 0.000420437 0)
(0.096316 0.00043314 0)
(0.0961504 0.000446564 0)
(0.0959831 0.000460761 0)
(0.0958138 0.000475782 0)
(0.0956423 0.000491677 0)
(0.0954686 0.000508495 0)
(0.0952925 0.000526284 0)
(0.0951138 0.000545095 0)
(0.0949324 0.000564982 0)
(0.0947482 0.000586002 0)
(0.0945609 0.000608222 0)
(0.0943705 0.000631713 0)
(0.0941767 0.00065656 0)
(0.0939794 0.00068286 0)
(0.0937785 0.000710722 0)
(0.0935737 0.000740276 0)
(0.0933648 0.000771671 0)
(0.0931516 0.00080508 0)
(0.0929338 0.000840701 0)
(0.0927113 0.000878767 0)
(0.0924837 0.000919542 0)
(0.0922506 0.000963336 0)
(0.0920118 0.00101051 0)
(0.0917669 0.00106146 0)
(0.0915155 0.00111668 0)
(0.091257 0.00117673 0)
(0.0909909 0.00124224 0)
(0.0907168 0.00131398 0)
(0.0904339 0.00139283 0)
(0.0901417 0.00147982 0)
(0.0898393 0.00157618 0)
(0.0895261 0.00168334 0)
(0.0892011 0.00180301 0)
(0.0888635 0.00193721 0)
(0.0885124 0.00208835 0)
(0.0881469 0.0022593 0)
(0.0877662 0.00245352 0)
(0.0873697 0.00267512 0)
(0.0869568 0.00292904 0)
(0.0865275 0.0032212 0)
(0.0860824 0.00355865 0)
(0.0856231 0.00394978 0)
(0.0851526 0.0044044 0)
(0.084676 0.00493386 0)
(0.0842012 0.00555085 0)
(0.0837403 0.00626898 0)
(0.0833105 0.00710154 0)
(0.0829355 0.00805938 0)
(0.0826464 0.00914688 0)
(0.0824813 0.0103558 0)
(0.0824824 0.0116564 0)
(0.0826878 0.0129869 0)
(0.0831161 0.0142457 0)
(0.0837428 0.0152961 0)
(0.0999991 9.71709e-06 0)
(0.0999918 3.01598e-05 0)
(0.0999728 6.51221e-05 0)
(0.0999356 0.000115342 0)
(0.0998741 0.000175768 0)
(0.0997851 0.000237286 0)
(0.0996696 0.000290642 0)
(0.0995324 0.000329958 0)
(0.0993803 0.000354051 0)
(0.0992199 0.000365552 0)
(0.0990566 0.000368928 0)
(0.0988937 0.000368626 0)
(0.098733 0.000367964 0)
(0.098575 0.000368846 0)
(0.0984192 0.000371987 0)
(0.0982653 0.000377349 0)
(0.0981123 0.000384543 0)
(0.09796 0.000393107 0)
(0.0978076 0.00040265 0)
(0.097655 0.000412904 0)
(0.0975019 0.000423719 0)
(0.0973481 0.000435034 0)
(0.0971934 0.000446851 0)
(0.0970377 0.000459208 0)
(0.0968809 0.000472162 0)
(0.0967228 0.000485778 0)
(0.0965632 0.000500121 0)
(0.0964021 0.000515258 0)
(0.0962394 0.000531251 0)
(0.0960748 0.000548162 0)
(0.0959082 0.000566047 0)
(0.0957396 0.000584962 0)
(0.0955687 0.000604965 0)
(0.0953955 0.000626109 0)
(0.0952198 0.000648455 0)
(0.0950415 0.000672062 0)
(0.0948604 0.000696999 0)
(0.0946764 0.00072334 0)
(0.0944894 0.000751169 0)
(0.0942992 0.000780584 0)
(0.0941057 0.000811694 0)
(0.0939087 0.000844626 0)
(0.093708 0.00087953 0)
(0.0935035 0.000916575 0)
(0.093295 0.000955957 0)
(0.0930823 0.000997904 0)
(0.0928651 0.00104268 0)
(0.0926433 0.00109058 0)
(0.0924165 0.00114195 0)
(0.0921845 0.00119719 0)
(0.091947 0.00125677 0)
(0.0917036 0.00132121 0)
(0.091454 0.00139113 0)
(0.0911978 0.00146723 0)
(0.0909346 0.00155034 0)
(0.090664 0.00164142 0)
(0.0903855 0.00174155 0)
(0.0900986 0.00185205 0)
(0.089803 0.00197441 0)
(0.0894981 0.00211039 0)
(0.0891835 0.00226206 0)
(0.088859 0.0024318 0)
(0.0885244 0.00262246 0)
(0.0881797 0.00283732 0)
(0.0878251 0.00308022 0)
(0.0874615 0.00335565 0)
(0.0870902 0.00366879 0)
(0.0867135 0.00402554 0)
(0.0863346 0.00443262 0)
(0.0859587 0.00489743 0)
(0.0855926 0.00542792 0)
(0.0852461 0.00603219 0)
(0.084932 0.00671779 0)
(0.0846668 0.00749055 0)
(0.0844715 0.00835267 0)
(0.0843705 0.00930001 0)
(0.0843907 0.0103184 0)
(0.0845582 0.0113792 0)
(0.0848919 0.0124358 0)
(0.0853948 0.0134221 0)
(0.0860432 0.0142598 0)
(0.0999991 1.10516e-05 0)
(0.0999924 3.42195e-05 0)
(0.0999753 7.3826e-05 0)
(0.0999419 0.000130967 0)
(0.0998862 0.000200188 0)
(0.0998048 0.000271312 0)
(0.0996978 0.00033378 0)
(0.0995689 0.000380662 0)
(0.0994241 0.000410268 0)
(0.0992695 0.000425278 0)
(0.0991105 0.000430584 0)
(0.0989508 0.000431198 0)
(0.0987924 0.000430963 0)
(0.0986363 0.000432164 0)
(0.0984824 0.000435745 0)
(0.0983303 0.000441773 0)
(0.0981796 0.000449885 0)
(0.0980295 0.000459599 0)
(0.0978798 0.000470493 0)
(0.09773 0.000482268 0)
(0.0975798 0.000494751 0)
(0.097429 0.000507867 0)
(0.0972774 0.000521608 0)
(0.0971248 0.000536012 0)
(0.0969711 0.000551136 0)
(0.0968162 0.000567048 0)
(0.0966598 0.00058382 0)
(0.096502 0.000601523 0)
(0.0963424 0.000620225 0)
(0.0961811 0.000639992 0)
(0.0960179 0.000660888 0)
(0.0958526 0.000682974 0)
(0.0956851 0.000706314 0)
(0.0955154 0.000730968 0)
(0.0953433 0.000757001 0)
(0.0951686 0.000784483 0)
(0.0949913 0.000813488 0)
(0.0948113 0.000844101 0)
(0.0946283 0.000876416 0)
(0.0944424 0.00091054 0)
(0.0942534 0.000946598 0)
(0.0940612 0.000984732 0)
(0.0938655 0.00102511 0)
(0.0936663 0.00106791 0)
(0.0934635 0.00111336 0)
(0.0932568 0.0011617 0)
(0.0930462 0.00121323 0)
(0.0928313 0.00126826 0)
(0.092612 0.00132719 0)
(0.0923882 0.00139043 0)
(0.0921596 0.00145849 0)
(0.0919259 0.00153193 0)
(0.091687 0.0016114 0)
(0.0914425 0.00169765 0)
(0.0911923 0.00179153 0)
(0.0909362 0.00189403 0)
(0.0906738 0.00200627 0)
(0.0904052 0.00212956 0)
(0.09013 0.0022654 0)
(0.0898483 0.00241549 0)
(0.0895601 0.00258181 0)
(0.0892657 0.00276662 0)
(0.0889656 0.00297251 0)
(0.0886604 0.00320242 0)
(0.0883513 0.00345967 0)
(0.08804 0.003748 0)
(0.087729 0.00407152 0)
(0.0874215 0.00443473 0)
(0.0871219 0.0048424 0)
(0.086836 0.00529939 0)
(0.0865714 0.0058104 0)
(0.0863377 0.00637951 0)
(0.0861464 0.00700951 0)
(0.0860117 0.00770094 0)
(0.0859496 0.00845089 0)
(0.0859774 0.00925132 0)
(0.0861123 0.0100873 0)
(0.0863686 0.0109353 0)
(0.0867544 0.0117625 0)
(0.0872666 0.0125277 0)
(0.0878868 0.0131863 0)
(0.0999991 1.23695e-05 0)
(0.099993 3.81371e-05 0)
(0.0999778 8.21502e-05 0)
(0.0999481 0.000145943 0)
(0.0998984 0.000223811 0)
(0.0998248 0.000304648 0)
(0.0997267 0.000376647 0)
(0.0996068 0.00043177 0)
(0.09947 0.000467689 0)
(0.099322 0.000486987 0)
(0.0991682 0.000494872 0)
(0.0990123 0.000496867 0)
(0.0988571 0.000497336 0)
(0.0987035 0.000498981 0)
(0.098552 0.000503026 0)
(0.0984024 0.000509689 0)
(0.0982542 0.000518666 0)
(0.098107 0.000529483 0)
(0.0979602 0.000541701 0)
(0.0978136 0.000554996 0)
(0.0976667 0.00056917 0)
(0.0975193 0.000584132 0)
(0.0973713 0.000599866 0)
(0.0972223 0.000616402 0)
(0.0970722 0.000633795 0)
(0.0969209 0.000652116 0)
(0.0967682 0.000671437 0)
(0.096614 0.000691834 0)
(0.0964582 0.000713377 0)
(0.0963006 0.000736138 0)
(0.0961412 0.000760184 0)
(0.0959798 0.000785582 0)
(0.0958163 0.000812398 0)
(0.0956506 0.000840699 0)
(0.0954826 0.000870556 0)
(0.0953122 0.000902043 0)
(0.0951394 0.000935243 0)
(0.0949639 0.000970248 0)
(0.0947858 0.00100716 0)
(0.094605 0.0010461 0)
(0.0944212 0.00108719 0)
(0.0942346 0.0011306 0)
(0.0940448 0.0011765 0)
(0.0938519 0.00122509 0)
(0.0936558 0.00127662 0)
(0.0934562 0.00133133 0)
(0.0932532 0.00138955 0)
(0.0930465 0.00145161 0)
(0.0928361 0.00151792 0)
(0.0926218 0.00158892 0)
(0.0924036 0.00166512 0)
(0.0921813 0.00174712 0)
(0.0919548 0.00183556 0)
(0.091724 0.00193122 0)
(0.0914888 0.00203493 0)
(0.0912493 0.00214766 0)
(0.0910055 0.00227053 0)
(0.0907575 0.00240476 0)
(0.0905054 0.00255177 0)
(0.0902496 0.00271314 0)
(0.0899906 0.00289065 0)
(0.089729 0.00308628 0)
(0.0894659 0.00330224 0)
(0.0892026 0.00354095 0)
(0.0889407 0.00380505 0)
(0.0886828 0.00409735 0)
(0.0884316 0.0044208 0)
(0.0881911 0.00477838 0)
(0.0879659 0.005173 0)
(0.0877618 0.00560722 0)
(0.087586 0.00608306 0)
(0.0874466 0.00660152 0)
(0.0873533 0.00716217 0)
(0.0873168 0.00776246 0)
(0.0873482 0.00839705 0)
(0.0874587 0.00905703 0)
(0.0876583 0.00972923 0)
(0.087954 0.0103958 0)
(0.0883481 0.0110347 0)
(0.0888357 0.0116206 0)
(0.0894035 0.012128 0)
(0.0999992 1.36697e-05 0)
(0.0999936 4.18925e-05 0)
(0.09998 9.00296e-05 0)
(0.0999539 0.000160132 0)
(0.09991 0.000246402 0)
(0.0998442 0.000336967 0)
(0.099755 0.000418848 0)
(0.0996443 0.00048286 0)
(0.099516 0.000525909 0)
(0.0993754 0.000550325 0)
(0.0992275 0.000561503 0)
(0.0990764 0.000565411 0)
(0.0989249 0.00056692 0)
(0.0987746 0.000569181 0)
(0.0986261 0.000573742 0)
(0.0984795 0.000581022 0)
(0.0983344 0.000590817 0)
(0.0981905 0.00060269 0)
(0.0980471 0.000616198 0)
(0.0979041 0.000631002 0)
(0.0977609 0.000646883 0)
(0.0976174 0.000663732 0)
(0.0974732 0.000681519 0)
(0.0973282 0.000700265 0)
(0.0971821 0.000720021 0)
(0.0970349 0.000740855 0)
(0.0968863 0.000762839 0)
(0.0967362 0.000786049 0)
(0.0965846 0.000810558 0)
(0.0964312 0.000836439 0)
(0.0962761 0.00086376 0)
(0.096119 0.000892593 0)
(0.09596 0.000923006 0)
(0.0957989 0.00095507 0)
(0.0956356 0.000988859 0)
(0.0954702 0.00102445 0)
(0.0953024 0.00106194 0)
(0.0951323 0.00110141 0)
(0.0949597 0.00114299 0)
(0.0947847 0.00118678 0)
(0.094607 0.00123295 0)
(0.0944268 0.00128164 0)
(0.0942439 0.00133304 0)
(0.0940582 0.00138738 0)
(0.0938697 0.00144488 0)
(0.0936784 0.00150583 0)
(0.0934841 0.00157054 0)
(0.0932869 0.00163936 0)
(0.0930867 0.00171271 0)
(0.0928834 0.00179102 0)
(0.092677 0.00187482 0)
(0.0924677 0.00196467 0)
(0.0922553 0.00206123 0)
(0.0920399 0.00216523 0)
(0.0918217 0.00227747 0)
(0.0916009 0.00239887 0)
(0.0913777 0.00253043 0)
(0.0911524 0.00267329 0)
(0.0909255 0.00282868 0)
(0.0906977 0.00299798 0)
(0.0904698 0.00318268 0)
(0.0902429 0.00338439 0)
(0.0900182 0.00360483 0)
(0.0897975 0.00384582 0)
(0.089583 0.00410924 0)
(0.0893771 0.00439694 0)
(0.0891831 0.00471073 0)
(0.0890047 0.00505221 0)
(0.0888465 0.00542267 0)
(0.0887136 0.00582288 0)
(0.0886119 0.00625287 0)
(0.0885481 0.00671166 0)
(0.0885294 0.00719695 0)
(0.0885631 0.00770478 0)
(0.0886564 0.00822918 0)
(0.088816 0.00876197 0)
(0.089047 0.00929256 0)
(0.089352 0.00980812 0)
(0.0897305 0.010294 0)
(0.0901777 0.0107348 0)
(0.0906844 0.0111159 0)
(0.0999992 1.49573e-05 0)
(0.0999941 4.54903e-05 0)
(0.099982 9.7453e-05 0)
(0.0999591 0.000173479 0)
(0.0999205 0.000267838 0)
(0.0998619 0.00036806 0)
(0.0997814 0.000460087 0)
(0.0996798 0.00053357 0)
(0.0995603 0.000584533 0)
(0.0994275 0.0006149 0)
(0.0992863 0.00063012 0)
(0.0991407 0.000636521 0)
(0.0989939 0.000639462 0)
(0.0988476 0.000642559 0)
(0.0987029 0.000647728 0)
(0.0985598 0.000655635 0)
(0.0984183 0.00066622 0)
(0.0982781 0.000679108 0)
(0.0981386 0.000693877 0)
(0.0979995 0.000710177 0)
(0.0978604 0.000727776 0)
(0.097721 0.000746545 0)
(0.0975811 0.000766439 0)
(0.0974404 0.000787466 0)
(0.0972987 0.00080967 0)
(0.0971558 0.000833112 0)
(0.0970117 0.000857862 0)
(0.0968661 0.000883992 0)
(0.0967191 0.000911575 0)
(0.0965704 0.000940682 0)
(0.09642 0.000971385 0)
(0.0962678 0.00100375 0)
(0.0961138 0.00103786 0)
(0.0959578 0.00107377 0)
(0.0957999 0.00111156 0)
(0.0956399 0.00115133 0)
(0.0954779 0.00119314 0)
(0.0953138 0.00123712 0)
(0.0951475 0.00128336 0)
(0.094979 0.001332 0)
(0.0948082 0.00138319 0)
(0.0946353 0.00143708 0)
(0.0944601 0.00149388 0)
(0.0942826 0.00155379 0)
(0.0941028 0.00161706 0)
(0.0939208 0.00168397 0)
(0.0937364 0.00175483 0)
(0.0935498 0.00182998 0)
(0.093361 0.00190983 0)
(0.0931701 0.00199481 0)
(0.0929771 0.0020854 0)
(0.0927821 0.00218216 0)
(0.0925854 0.00228568 0)
(0.0923871 0.00239664 0)
(0.0921876 0.00251577 0)
(0.0919871 0.00264387 0)
(0.0917861 0.00278182 0)
(0.0915852 0.00293058 0)
(0.0913851 0.00309116 0)
(0.0911867 0.00326467 0)
(0.0909909 0.00345223 0)
(0.0907992 0.00365505 0)
(0.0906131 0.00387433 0)
(0.0904344 0.00411125 0)
(0.0902653 0.00436693 0)
(0.0901085 0.00464237 0)
(0.089967 0.00493836 0)
(0.0898441 0.00525538 0)
(0.0897437 0.00559349 0)
(0.0896702 0.00595221 0)
(0.0896281 0.00633031 0)
(0.0896223 0.00672573 0)
(0.0896577 0.00713535 0)
(0.089739 0.00755489 0)
(0.0898705 0.0079788 0)
(0.0900556 0.00840024 0)
(0.0902965 0.00881119 0)
(0.0905934 0.00920263 0)
(0.0909448 0.00956504 0)
(0.0913463 0.00988894 0)
(0.0917914 0.0101657 0)
(0.0999992 1.62435e-05 0)
(0.0999945 4.89573e-05 0)
(0.0999837 0.000104462 0)
(0.0999635 0.000186023 0)
(0.0999295 0.00028812 0)
(0.0998775 0.000397851 0)
(0.099805 0.000500191 0)
(0.0997121 0.000583626 0)
(0.0996014 0.000643206 0)
(0.0994767 0.000680313 0)
(0.0993427 0.000700316 0)
(0.0992034 0.000709816 0)
(0.099062 0.000714622 0)
(0.0989205 0.000718825 0)
(0.0987801 0.000724741 0)
(0.0986413 0.000733327 0)
(0.0985039 0.000744701 0)
(0.0983678 0.000758586 0)
(0.0982325 0.000774596 0)
(0.0980977 0.000792387 0)
(0.097963 0.000811714 0)
(0.0978281 0.000832433 0)
(0.0976927 0.000854479 0)
(0.0975566 0.00087785 0)
(0.0974196 0.000902574 0)
(0.0972815 0.000928705 0)
(0.0971421 0.000956306 0)
(0.0970015 0.000985445 0)
(0.0968594 0.00101619 0)
(0.0967158 0.00104861 0)
(0.0965706 0.00108277 0)
(0.0964238 0.00111875 0)
(0.0962752 0.0011566 0)
(0.0961249 0.0011964 0)
(0.0959729 0.00123824 0)
(0.095819 0.00128218 0)
(0.0956633 0.00132832 0)
(0.0955058 0.00137676 0)
(0.0953465 0.00142761 0)
(0.0951853 0.001481 0)
(0.0950222 0.00153708 0)
(0.0948574 0.001596 0)
(0.0946908 0.00165797 0)
(0.0945224 0.00172318 0)
(0.0943523 0.00179187 0)
(0.0941805 0.00186432 0)
(0.0940072 0.00194081 0)
(0.0938324 0.00202168 0)
(0.0936562 0.00210729 0)
(0.0934788 0.00219805 0)
(0.0933004 0.00229441 0)
(0.0931212 0.00239685 0)
(0.0929415 0.00250591 0)
(0.0927616 0.00262216 0)
(0.092582 0.00274621 0)
(0.0924031 0.00287875 0)
(0.0922256 0.00302047 0)
(0.0920501 0.00317211 0)
(0.0918776 0.00333444 0)
(0.091709 0.00350824 0)
(0.0915456 0.00369428 0)
(0.0913886 0.00389333 0)
(0.0912398 0.00410606 0)
(0.091101 0.0043331 0)
(0.0909743 0.00457489 0)
(0.090862 0.00483171 0)
(0.0907668 0.00510354 0)
(0.0906916 0.00539007 0)
(0.0906395 0.00569054 0)
(0.0906136 0.00600369 0)
(0.0906174 0.00632767 0)
(0.0906541 0.00665998 0)
(0.0907268 0.0069974 0)
(0.0908383 0.00733595 0)
(0.0909907 0.00767093 0)
(0.0911855 0.00799698 0)
(0.0914231 0.00830822 0)
(0.0917027 0.00859846 0)
(0.0920223 0.0088615 0)
(0.0923784 0.00909146 0)
(0.0927661 0.00928323 0)
(0.0999992 1.75423e-05 0)
(0.0999948 5.23379e-05 0)
(0.099985 0.000111139 0)
(0.099967 0.000197877 0)
(0.0999369 0.000307356 0)
(0.0998905 0.000426395 0)
(0.0998252 0.000539112 0)
(0.0997405 0.000632855 0)
(0.0996382 0.000701638 0)
(0.0995218 0.000746184 0)
(0.0993954 0.000771665 0)
(0.099263 0.000784864 0)
(0.0991276 0.000791996 0)
(0.0989917 0.000797619 0)
(0.0988563 0.000804473 0)
(0.0987222 0.000813834 0)
(0.0985895 0.000826037 0)
(0.0984579 0.000840928 0)
(0.0983272 0.00085818 0)
(0.0981971 0.000877466 0)
(0.098067 0.000898536 0)
(0.0979369 0.000921231 0)
(0.0978063 0.000945471 0)
(0.097675 0.000971235 0)
(0.0975429 0.000998538 0)
(0.0974099 0.00102742 0)
(0.0972757 0.00105794 0)
(0.0971402 0.00109015 0)
(0.0970035 0.00112412 0)
(0.0968653 0.0011599 0)
(0.0967258 0.00119757 0)
(0.0965847 0.00123717 0)
(0.0964421 0.00127879 0)
(0.096298 0.00132249 0)
(0.0961524 0.00136834 0)
(0.0960052 0.00141641 0)
(0.0958564 0.0014668 0)
(0.0957062 0.0015196 0)
(0.0955545 0.00157492 0)
(0.0954013 0.00163287 0)
(0.0952467 0.00169361 0)
(0.0950908 0.00175729 0)
(0.0949336 0.00182408 0)
(0.0947752 0.00189417 0)
(0.0946157 0.0019678 0)
(0.0944552 0.00204519 0)
(0.0942939 0.00212663 0)
(0.0941319 0.00221241 0)
(0.0939693 0.00230285 0)
(0.0938066 0.00239831 0)
(0.0936439 0.00249917 0)
(0.0934815 0.00260583 0)
(0.0933198 0.00271873 0)
(0.0931593 0.00283834 0)
(0.0930005 0.00296513 0)
(0.092844 0.0030996 0)
(0.0926905 0.00324226 0)
(0.0925408 0.00339363 0)
(0.0923959 0.00355419 0)
(0.0922568 0.00372442 0)
(0.0921247 0.00390472 0)
(0.092001 0.00409546 0)
(0.0918872 0.00429686 0)
(0.091785 0.00450906 0)
(0.0916963 0.00473197 0)
(0.0916232 0.00496532 0)
(0.0915676 0.00520857 0)
(0.0915319 0.00546085 0)
(0.0915184 0.00572096 0)
(0.0915293 0.00598729 0)
(0.0915669 0.00625778 0)
(0.0916332 0.00652995 0)
(0.0917299 0.00680085 0)
(0.0918585 0.00706709 0)
(0.0920197 0.00732494 0)
(0.0922139 0.00757036 0)
(0.0924406 0.00779916 0)
(0.0926986 0.00800714 0)
(0.0929857 0.00819027 0)
(0.0932993 0.00834488 0)
(0.0936357 0.00846787 0)
(0.0999992 1.88686e-05 0)
(0.099995 5.56845e-05 0)
(0.099986 0.000117594 0)
(0.0999697 0.000209205 0)
(0.0999427 0.000325734 0)
(0.0999011 0.000453845 0)
(0.099842 0.000576909 0)
(0.0997648 0.000681182 0)
(0.0996705 0.000759612 0)
(0.0995623 0.000812176 0)
(0.0994437 0.00084375 0)
(0.0993185 0.000861216 0)
(0.0991898 0.00087114 0)
(0.0990599 0.000878531 0)
(0.0989302 0.000886557 0)