/*--------------------------------*- C++ -*----------------------------------*\
| =========                 |                                                 |
| \\      /  F ield         | OpenFOAM: The Open Source CFD Toolbox           |
|  \\    /   O peration     | Version:  2106                                  |
|   \\  /    A nd           | Website:  www.openfoam.com                      |
|    \\/     M anipulation  |                                                 |
\*---------------------------------------------------------------------------*/
FoamFile
{
    version     2.0;
    format      ascii;
    arch        "LSB;label=32;scalar=64";
    class       surfaceScalarField;
    location    "6";
    object      phi;
}
// * * * * * * * * * * * * * * * * * * * * * * * * * * * * * * * * * * * * * //

dimensions      [1 0 -1 0 0 0 0];

oriented        oriented;

internalField   nonuniform List<scalar> 
23692
(
9.31786e-05
-9.91834e-08
9.3358e-05
-1.79392e-07
9.36088e-05
-2.50755e-07
9.39224e-05
-3.13547e-07
9.42923e-05
-3.69769e-07
9.4713e-05
-4.20632e-07
9.518e-05
-4.66948e-07
9.56894e-05
-5.09361e-07
9.62379e-05
-5.48369e-07
9.68224e-05
-5.84373e-07
9.74402e-05
-6.17692e-07
9.8089e-05
-6.48593e-07
9.87664e-05
-6.773e-07
9.94705e-05
-7.03995e-07
0.0001002
-7.28834e-07
0.000100952
-7.51951e-07
0.000101725
-7.73459e-07
0.000102519
-7.93452e-07
0.000103331
-8.12013e-07
0.000104161
-8.29215e-07
0.000105006
-8.45114e-07
0.000105866
-8.59766e-07
0.000106739
-8.73216e-07
0.000107625
-8.85501e-07
0.000108522
-8.96656e-07
0.000109429
-9.06709e-07
0.000110345
-9.15685e-07
0.000111268
-9.23605e-07
0.000112199
-9.30487e-07
0.000113136
-9.36346e-07
0.000114077
-9.41192e-07
0.000115022
-9.45038e-07
0.00011597
-9.47888e-07
0.00011692
-9.49746e-07
0.000117871
-9.50618e-07
0.000118822
-9.505e-07
0.000119771
-9.4939e-07
0.000120719
-9.47282e-07
0.000121663
-9.44166e-07
0.000122603
-9.40032e-07
0.000123538
-9.34863e-07
0.000124467
-9.2864e-07
0.000125389
-9.21338e-07
0.000126302
-9.12928e-07
0.000127205
-9.03376e-07
0.000128098
-8.9264e-07
0.000128979
-8.80671e-07
0.000129846
-8.67411e-07
0.000130699
-8.52791e-07
0.000131536
-8.36732e-07
0.000132355
-8.19139e-07
0.000133155
-7.99902e-07
0.000133934
-7.78888e-07
0.00013469
-7.55943e-07
0.000135421
-7.30882e-07
0.000136125
-7.03487e-07
0.000136798
-6.73495e-07
0.000137439
-6.40592e-07
0.000138044
-6.04394e-07
0.000138608
-5.64441e-07
0.000139128
-5.20161e-07
0.000139599
-4.70851e-07
0.000140015
-4.15634e-07
0.000140368
-3.53402e-07
0.000140651
-2.82744e-07
0.000140853
-2.01839e-07
0.000140961
-1.08289e-07
0.00014096
8.87511e-10
0.00014083
1.30414e-07
0.000140544
2.85926e-07
0.000140068
4.76161e-07
0.000139354
7.13548e-07
0.000138338
1.0167e-06
0.000136923
1.41426e-06
0.000134972
1.95163e-06
0.000132269
2.70278e-06
0.000128478
3.79125e-06
0.000123049
5.42911e-06
0.000115041
8.00766e-06
0.00010271
1.23308e-05
2.0709e-05
8.20012e-05
9.97025e-05
-2.02681e-07
9.98934e-05
-3.7026e-07
0.000100161
-5.18204e-07
0.000100496
-6.48154e-07
0.00010089
-7.64543e-07
0.00010134
-8.69828e-07
0.000101838
-9.65689e-07
0.000102383
-1.05346e-06
0.000102969
-1.13419e-06
0.000103593
-1.20869e-06
0.000104253
-1.27763e-06
0.000104946
-1.34156e-06
0.00010567
-1.40095e-06
0.000106422
-1.45617e-06
0.000107201
-1.50755e-06
0.000108005
-1.55536e-06
0.000108831
-1.59984e-06
0.000109679
-1.64118e-06
0.000110547
-1.67956e-06
0.000111433
-1.71512e-06
0.000112336
-1.74799e-06
0.000113255
-1.77828e-06
0.000114188
-1.80607e-06
0.000115134
-1.83145e-06
0.000116092
-1.85449e-06
0.000117061
-1.87525e-06
0.000118039
-1.89378e-06
0.000119026
-1.91012e-06
0.00012002
-1.92431e-06
0.00012102
-1.93639e-06
0.000122026
-1.94637e-06
0.000123035
-1.95427e-06
0.000124048
-1.96012e-06
0.000125062
-1.96391e-06
0.000126077
-1.96566e-06
0.000127092
-1.96536e-06
0.000128106
-1.96301e-06
0.000129118
-1.95859e-06
0.000130126
-1.95209e-06
0.000131129
-1.94348e-06
0.000132127
-1.93273e-06
0.000133119
-1.9198e-06
0.000134102
-1.90464e-06
0.000135077
-1.88719e-06
0.000136041
-1.86738e-06
0.000136993
-1.84512e-06
0.000137933
-1.82031e-06
0.000138859
-1.79284e-06
0.000139769
-1.76257e-06
0.000140661
-1.72933e-06
0.000141535
-1.69292e-06
0.000142389
-1.65313e-06
0.00014322
-1.60968e-06
0.000144026
-1.56227e-06
0.000144806
-1.5105e-06
0.000145556
-1.45394e-06
0.000146275
-1.39206e-06
0.000146959
-1.32422e-06
0.000147604
-1.24965e-06
0.000148207
-1.16741e-06
0.000148763
-1.07636e-06
0.000149267
-9.75094e-07
0.000149714
-8.61851e-07
0.000150095
-7.34433e-07
0.000150402
-5.9005e-07
0.000150625
-4.25124e-07
0.000150752
-2.35011e-07
0.000150767
-1.36329e-08
0.00015065
2.47344e-07
0.000150377
5.5911e-07
0.000149915
9.37499e-07
0.000149224
1.40493e-06
0.000148247
1.99395e-06
0.000146908
2.75271e-06
0.000145106
3.75389e-06
0.0001427
5.10848e-06
0.000139506
6.98596e-06
0.000135294
9.64093e-06
0.000129853
1.34488e-05
0.000123314
1.88697e-05
2.57227e-05
0.0001183
0.000106682
-3.09862e-07
0.000106884
-5.72349e-07
0.000107168
-8.02142e-07
0.000107524
-1.00411e-06
0.000107945
-1.18492e-06
0.000108424
-1.34844e-06
0.000108955
-1.4973e-06
0.000109535
-1.63357e-06
0.00011016
-1.75888e-06
0.000110826
-1.87451e-06
0.00011153
-1.98151e-06
0.00011227
-2.08072e-06
0.000113042
-2.17286e-06
0.000113844
-2.25852e-06
0.000114675
-2.33822e-06
0.000115532
-2.41237e-06
0.000116414
-2.48134e-06
0.000117318
-2.54544e-06
0.000118244
-2.60493e-06
0.000119189
-2.66004e-06
0.000120152
-2.71096e-06
0.000121132
-2.75787e-06
0.000122127
-2.80091e-06
0.000123136
-2.8402e-06
0.000124158
-2.87585e-06
0.000125191
-2.90796e-06
0.000126234
-2.9366e-06
0.000127286
-2.96184e-06
0.000128345
-2.98374e-06
0.000129412
-3.00235e-06
0.000130483
-3.01771e-06
0.000131559
-3.02984e-06
0.000132638
-3.03878e-06
0.000133719
-3.04453e-06
0.0001348
-3.0471e-06
0.000135882
-3.04649e-06
0.000136961
-3.04269e-06
0.000138039
-3.03568e-06
0.000139112
-3.02544e-06
0.000140181
-3.01193e-06
0.000141244
-2.9951e-06
0.000142299
-2.97489e-06
0.000143346
-2.95122e-06
0.000144383
-2.924e-06
0.000145408
-2.89312e-06
0.000146422
-2.85846e-06
0.000147422
-2.81986e-06
0.000148406
-2.77713e-06
0.000149374
-2.73008e-06
0.000150323
-2.67844e-06
0.000151252
-2.62192e-06
0.000152159
-2.56019e-06
0.000153042
-2.49283e-06
0.0001539
-2.41936e-06
0.000154729
-2.33923e-06
0.000155526
-2.25176e-06
0.000156291
-2.15615e-06
0.000157018
-2.05145e-06
0.000157705
-1.9365e-06
0.000158347
-1.80991e-06
0.000158941
-1.66999e-06
0.000159481
-1.51467e-06
0.00015996
-1.34136e-06
0.000160373
-1.14688e-06
0.00016071
-9.2718e-07
0.000160962
-6.77158e-07
0.000161117
-3.90243e-07
0.000161162
-5.79147e-08
0.000161078
3.31026e-07
0.000160845
7.91576e-07
0.000160439
1.34417e-06
0.000159827
2.01684e-06
0.000158972
2.84847e-06
0.000157832
3.89353e-06
0.000156357
5.22852e-06
0.000154505
6.96005e-06
0.000152259
9.23202e-06
0.000149676
1.22242e-05
0.000147006
1.6119e-05
0.00014494
2.09355e-05
2.59444e-05
0.000144718
0.00011415
-4.20449e-07
0.000114363
-7.85128e-07
0.000114664
-1.10238e-06
0.000115041
-1.38152e-06
0.000115487
-1.63133e-06
0.000115996
-1.85715e-06
0.000116562
-2.06267e-06
0.000117179
-2.25078e-06
0.000117844
-2.42373e-06
0.000118553
-2.58328e-06
0.000119302
-2.73089e-06
0.00012009
-2.86773e-06
0.000120912
-2.9948e-06
0.000121766
-3.11292e-06
0.000122651
-3.22278e-06
0.000123564
-3.32498e-06
0.000124503
-3.42002e-06
0.000125466
-3.50831e-06
0.000126451
-3.59024e-06
0.000127458
-3.66611e-06
0.000128483
-3.7362e-06
0.000129526
-3.80073e-06
0.000130586
-3.85992e-06
0.00013166
-3.91392e-06
0.000132747
-3.9629e-06
0.000133846
-4.00697e-06
0.000134956
-4.04626e-06
0.000136075
-4.08085e-06
0.000137203
-4.11082e-06
0.000138337
-4.13624e-06
0.000139476
-4.15717e-06
0.00014062
-4.17364e-06
0.000141768
-4.18569e-06
0.000142917
-4.19335e-06
0.000144066
-4.19661e-06
0.000145216
-4.19549e-06
0.000146363
-4.18996e-06
0.000147508
-4.18001e-06
0.000148648
-4.1656e-06
0.000149783
-4.14667e-06
0.000150911
-4.12317e-06
0.000152032
-4.09501e-06
0.000153143
-4.06209e-06
0.000154243
-4.02428e-06
0.000155332
-3.98144e-06
0.000156407
-3.9334e-06
0.000157467
-3.87995e-06
0.000158511
-3.82085e-06
0.000159537
-3.7558e-06
0.000160543
-3.68449e-06
0.000161528
-3.60651e-06
0.000162489
-3.52141e-06
0.000163425
-3.42865e-06
0.000164333
-3.32758e-06
0.000165212
-3.21747e-06
0.000166057
-3.09743e-06
0.000166868
-2.96641e-06
0.00016764
-2.82315e-06
0.000168369
-2.66615e-06
0.000169053
-2.49361e-06
0.000169686
-2.30335e-06
0.000170265
-2.0927e-06
0.000170782
-1.85841e-06
0.000171231
-1.59647e-06
0.000171606
-1.30187e-06
0.000171897
-9.68345e-07
0.000172095
-5.87988e-07
0.000172188
-1.50746e-07
0.000172163
3.5619e-07
0.000172005
9.49411e-07
0.000171698
1.65075e-06
0.000171226
2.48881e-06
0.000170574
3.5011e-06
0.000169731
4.73653e-06
0.000168701
6.25795e-06
0.000167518
8.14324e-06
0.000166269
1.04815e-05
0.000165137
1.33561e-05
0.00016446
1.67956e-05
0.000164746
2.06495e-05
2.43268e-05
0.000166364
0.000122141
-5.34308e-07
0.000122364
-1.00815e-06
0.000122681
-1.41866e-06
0.000123079
-1.78038e-06
0.000123552
-2.104e-06
0.000124092
-2.39644e-06
0.000124692
-2.66253e-06
0.000125347
-2.90602e-06
0.000126053
-3.12982e-06
0.000126806
-3.33624e-06
0.000127603
-3.52716e-06
0.000128439
-3.70411e-06
0.000129313
-3.86838e-06
0.000130221
-4.02104e-06
0.000131162
-4.163e-06
0.000132132
-4.29501e-06
0.00013313
-4.41773e-06
0.000134154
-4.53171e-06
0.000135201
-4.63743e-06
0.00013627
-4.7353e-06
0.00013736
-4.82567e-06
0.000138469
-4.90883e-06
0.000139594
-4.98506e-06
0.000140735
-5.05457e-06
0.00014189
-5.11756e-06
0.000143057
-5.1742e-06
0.000144236
-5.22462e-06
0.000145424
-5.26896e-06
0.000146621
-5.30732e-06
0.000147825
-5.33978e-06
0.000149034
-5.36641e-06
0.000150248
-5.38728e-06
0.000151465
-5.40242e-06
0.000152684
-5.41186e-06
0.000153903
-5.41562e-06
0.000155122
-5.41369e-06
0.000156338
-5.40607e-06
0.000157551
-5.39273e-06
0.000158759
-5.37362e-06
0.000159961
-5.34868e-06
0.000161156
-5.31783e-06
0.000162342
-5.28096e-06
0.000163519
-5.23795e-06
0.000164683
-5.18865e-06
0.000165835
-5.13287e-06
0.000166972
-5.0704e-06
0.000168093
-5.00097e-06
0.000169197
-4.9243e-06
0.000170281
-4.84002e-06
0.000171344
-4.74771e-06
0.000172385
-4.64691e-06
0.000173401
-4.53703e-06
0.00017439
-4.41741e-06
0.000175349
-4.28728e-06
0.000176278
-4.14571e-06
0.000177172
-3.99164e-06
0.00017803
-3.82379e-06
0.000178847
-3.64065e-06
0.000179622
-3.44043e-06
0.000180349
-3.22099e-06
0.000181026
-2.97975e-06
0.000181647
-2.71364e-06
0.000182207
-2.41889e-06
0.000182702
-2.09095e-06
0.000183124
-1.72423e-06
0.000183468
-1.31185e-06
0.000183725
-8.45339e-07
0.000183888
-3.14173e-07
0.00018395
2.94584e-07
0.000183903
9.96897e-07
0.00018374
1.81286e-06
0.000183462
2.76742e-06
0.000183072
3.89104e-06
0.000182588
5.2201e-06
0.00018205
6.79628e-06
0.00018153
8.66348e-06
0.000181152
1.08598e-05
0.000181108
1.33999e-05
0.000181665
1.62387e-05
0.000183107
1.92076e-05
2.19221e-05
0.000185511
0.000130691
-6.51428e-07
0.000130924
-1.24107e-06
0.000131256
-1.75071e-06
0.000131677
-2.20055e-06
0.000132176
-2.60304e-06
0.000132746
-2.96666e-06
0.000133381
-3.29742e-06
0.000134075
-3.60001e-06
0.000134824
-3.87805e-06
0.000135622
-4.13443e-06
0.000136466
-4.37148e-06
0.000137354
-4.59113e-06
0.00013828
-4.79498e-06
0.000139244
-4.98436e-06
0.000140242
-5.1604e-06
0.000141271
-5.32405e-06
0.00014233
-5.47612e-06
0.000143415
-5.61731e-06
0.000144526
-5.7482e-06
0.000145661
-5.86931e-06
0.000146816
-5.98108e-06
0.000147992
-6.08388e-06
0.000149185
-6.17803e-06
0.000150394
-6.26382e-06
0.000151619
-6.34149e-06
0.000152856
-6.41125e-06
0.000154105
-6.47327e-06
0.000155364
-6.52772e-06
0.000156632
-6.57472e-06
0.000157907
-6.61438e-06
0.000159187
-6.6468e-06
0.000160472
-6.67204e-06
0.00016176
-6.69015e-06
0.00016305
-6.70118e-06
0.00016434
-6.70515e-06
0.000165628
-6.70206e-06
0.000166914
-6.6919e-06
0.000168197
-6.67464e-06
0.000169473
-6.65022e-06
0.000170743
-6.61857e-06
0.000172005
-6.57959e-06
0.000173258
-6.53318e-06
0.000174499
-6.47917e-06
0.000175728
-6.41738e-06
0.000176943
-6.34761e-06
0.000178143
-6.26959e-06
0.000179325
-6.18303e-06
0.000180488
-6.08756e-06
0.000181631
-5.98276e-06
0.000182752
-5.86817e-06
0.000183848
-5.7432e-06
0.000184919
-5.60719e-06
0.000185961
-5.45939e-06
0.000186972
-5.29887e-06
0.000187951
-5.1246e-06
0.000188895
-4.93534e-06
0.000189801
-4.72965e-06
0.000190667
-4.50583e-06
0.000191488
-4.26188e-06
0.000192263
-3.99542e-06
0.000192987
-3.70366e-06
0.000193656
-3.38325e-06
0.000194268
-3.03022e-06
0.000194817
-2.63979e-06
0.000195299
-2.20627e-06
0.00019571
-1.72279e-06
0.000196045
-1.18111e-06
0.000196303
-5.7136e-07
0.000196479
1.18185e-07
0.000196575
9.01139e-07
0.000196594
1.79344e-06
0.000196548
2.8138e-06
0.000196456
3.98305e-06
0.000196353
5.32322e-06
0.000196294
6.85539e-06
0.000196362
8.59565e-06
0.000196674
1.05477e-05
0.000197383
1.26905e-05
0.000198663
1.4959e-05
0.000200652
1.72181e-05
1.92405e-05
0.000203334
0.00013984
-7.71891e-07
0.000140083
-1.48362e-06
0.00014043
-2.09832e-06
0.000140872
-2.64185e-06
0.000141397
-3.12842e-06
0.000141999
-3.56794e-06
0.000142669
-3.96767e-06
0.000143402
-4.33326e-06
0.000144194
-4.66909e-06
0.000145038
-4.97866e-06
0.000145932
-5.2648e-06
0.00014687
-5.52985e-06
0.000147851
-5.77573e-06
0.000148871
-6.00408e-06
0.000149927
-6.21626e-06
0.000151017
-6.41343e-06
0.000152138
-6.59656e-06
0.000153287
-6.7665e-06
0.000154463
-6.92396e-06
0.000155664
-7.06957e-06
0.000156887
-7.20385e-06
0.000158131
-7.32727e-06
0.000159393
-7.44021e-06
0.000160673
-7.54303e-06
0.000161967
-7.63601e-06
0.000163276
-7.7194e-06
0.000164596
-7.79344e-06
0.000165927
-7.8583e-06
0.000167267
-7.91414e-06
0.000168614
-7.96111e-06
0.000169967
-7.99931e-06
0.000171324
-8.02882e-06
0.000172684
-8.04973e-06
0.000174045
-8.06208e-06
0.000175406
-8.06589e-06
0.000176765
-8.06119e-06
0.000178122
-8.04794e-06
0.000179473
-8.02613e-06
0.000180819
-7.9957e-06
0.000182157
-7.95657e-06
0.000183487
-7.90863e-06
0.000184806
-7.85174e-06
0.000186112
-7.78575e-06
0.000187406
-7.71044e-06
0.000188684
-7.62557e-06
0.000189945
-7.53085e-06
0.000191188
-7.42594e-06
0.000192411
-7.31045e-06
0.000193613
-7.1839e-06
0.000194791
-7.04575e-06
0.000195943
-6.89538e-06
0.000197068
-6.73204e-06
0.000198164
-6.55488e-06
0.000199228
-6.36292e-06
0.000200258
-6.15502e-06
0.000201253
-5.92983e-06
0.000202209
-5.68581e-06
0.000203125
-5.42115e-06
0.000203997
-5.13376e-06
0.000204822
-4.82117e-06
0.000205599
-4.48052e-06
0.000206325
-4.10845e-06
0.000206996
-3.70105e-06
0.00020761
-3.25372e-06
0.000208164
-2.7611e-06
0.000208659
-2.21696e-06
0.000209092
-1.61405e-06
0.000209464
-9.4405e-07
0.00020978
-1.97496e-07
0.000210045
6.35929e-07
0.000210272
1.56688e-06
0.000210479
2.607e-06
0.000210694
3.76753e-06
0.00021096
5.05796e-06
0.000211331
6.48373e-06
0.000211884
8.04287e-06
0.000212711
9.72116e-06
0.000213916
1.14855e-05
0.000215599
1.32759e-05
0.000217818
1.49986e-05
1.65257e-05
0.000220533
0.00014963
-8.95842e-07
0.000149882
-1.73562e-06
0.000150245
-2.46127e-06
0.000150707
-3.1041e-06
0.000151259
-3.68002e-06
0.000151891
-4.2003e-06
0.000152597
-4.67344e-06
0.00015337
-5.10607e-06
0.000154204
-5.50337e-06
0.000155095
-5.86949e-06
0.000156039
-6.20779e-06
0.00015703
-6.52102e-06
0.000158066
-6.8115e-06
0.000159143
-7.08114e-06
0.000160259
-7.33157e-06
0.00016141
-7.56417e-06
0.000162594
-7.78009e-06
0.000163808
-7.98035e-06
0.00016505
-8.16579e-06
0.000166318
-8.33715e-06
0.000167609
-8.49506e-06
0.000168923
-8.64007e-06
0.000170255
-8.77264e-06
0.000171606
-8.89319e-06
0.000172972
-9.00206e-06
0.000174353
-9.09957e-06
0.000175745
-9.18596e-06
0.000177149
-9.26148e-06
0.000178561
-9.3263e-06
0.000179981
-9.3806e-06
0.000181407
-9.4245e-06
0.000182836
-9.45813e-06
0.000184269
-9.48156e-06
0.000185702
-9.49486e-06
0.000187134
-9.49807e-06
0.000188564
-9.4912e-06
0.000189991
-9.47425e-06
0.000191412
-9.4472e-06
0.000192827
-9.40998e-06
0.000194233
-9.36251e-06
0.000195629
-9.30467e-06
0.000197014
-9.23634e-06
0.000198386
-9.15732e-06
0.000199743
-9.06739e-06
0.000201084
-8.96629e-06
0.000202407
-8.85371e-06
0.000203711
-8.72929e-06
0.000204993
-8.59258e-06
0.000206253
-8.44309e-06
0.000207487
-8.28025e-06
0.000208696
-8.10337e-06
0.000209875
-7.91168e-06
0.000211025
-7.70428e-06
0.000212142
-7.48015e-06
0.000213226
-7.23809e-06
0.000214273
-6.97674e-06
0.000215281
-6.69453e-06
0.00021625
-6.38965e-06
0.000217176
-6.06001e-06
0.000218059
-5.70324e-06
0.000218895
-5.3166e-06
0.000219683
-4.89696e-06
0.000220423
-4.44075e-06
0.000221113
-3.9439e-06
0.000221754
-3.40182e-06
0.000222347
-2.8094e-06
0.000222894
-2.16094e-06
0.0002234
-1.45025e-06
0.000223873
-6.70763e-07
0.000224325
1.84321e-07
0.000224771
1.12082e-06
0.000225234
2.14351e-06
0.000225746
3.2559e-06
0.000226346
4.45844e-06
0.000227083
5.74682e-06
0.000228016
7.10987e-06
0.00022921
8.52709e-06
0.000230729
9.96598e-06
0.000232625
1.138e-05
0.000234915
1.27084e-05
1.38811e-05
0.00023756
0.000160104
-1.02345e-06
0.000160366
-1.99693e-06
0.000160744
-2.8394e-06
0.000161227
-3.58707e-06
0.000161805
-4.25765e-06
0.000162468
-4.86363e-06
0.00016321
-5.41471e-06
0.000164022
-5.91853e-06
0.0001649
-6.3811e-06
0.000165838
-6.80723e-06
0.000166831
-7.20083e-06
0.000167876
-7.56512e-06
0.000168967
-7.9028e-06
0.000170103
-8.21611e-06
0.000171278
-8.50695e-06
0.000172491
-8.77693e-06
0.000173739
-9.02741e-06
0.000175018
-9.25956e-06
0.000176327
-9.47438e-06
0.000177663
-9.67273e-06
0.000179024
-9.85536e-06
0.000180407
-1.00229e-05
0.000181811
-1.01759e-05
0.000183233
-1.03148e-05
0.000184671
-1.04402e-05
0.000186124
-1.05522e-05
0.00018759
-1.06512e-05
0.000189066
-1.07376e-05
0.000190552
-1.08114e-05
0.000192044
-1.0873e-05
0.000193543
-1.09225e-05
0.000195045
-1.09599e-05
0.000196549
-1.09855e-05
0.000198054
-1.09994e-05
0.000199558
-1.10014e-05
0.000201058
-1.09918e-05
0.000202555
-1.09704e-05
0.000204045
-1.09373e-05
0.000205528
-1.08925e-05
0.000207002
-1.08357e-05
0.000208464
-1.0767e-05
0.000209915
-1.06862e-05
0.000211351
-1.05931e-05
0.000212771
-1.04875e-05
0.000214174
-1.0369e-05
0.000215558
-1.02374e-05
0.000216921
-1.00923e-05
0.000218262
-9.93333e-06
0.000219579
-9.75984e-06
0.00022087
-9.57131e-06
0.000222134
-9.36705e-06
0.000223369
-9.14627e-06
0.000224573
-8.90807e-06
0.000225744
-8.65145e-06
0.000226882
-8.37523e-06
0.000227983
-8.07808e-06
0.000229047
-7.75852e-06
0.000230073
-7.41482e-06
0.000231058
-7.04509e-06
0.000232002
-6.64716e-06
0.000232904
-6.21862e-06
0.000233764
-5.75677e-06
0.000234582
-5.25865e-06
0.000235359
-4.721e-06
0.000236098
-4.14033e-06
0.000236801
-3.51291e-06
0.000237475
-2.8349e-06
0.000238127
-2.10247e-06
0.000238769
-1.31197e-06
0.000239413
-4.60104e-07
0.000240079
4.5536e-07
0.000240788
1.43417e-06
0.00024157
2.47408e-06
0.000242458
3.5701e-06
0.000243492
4.71321e-06
0.000244713
5.88922e-06
0.000246162
7.07792e-06
0.000247875
8.25256e-06
0.000249875
9.38e-06
0.000252161
1.04225e-05
1.13421e-05
0.0002547
0.000171313
-1.15488e-06
0.000171583
-2.26748e-06
0.000171977
-3.23253e-06
0.00017248
-4.09052e-06
0.000173084
-4.86105e-06
0.000173778
-5.55769e-06
0.000174555
-6.19128e-06
0.000175407
-6.7705e-06
0.000176328
-7.3022e-06
0.000177313
-7.79187e-06
0.000178356
-8.24399e-06
0.000179454
-8.66228e-06
0.000180601
-9.04982e-06
0.000181794
-9.40921e-06
0.00018303
-9.74264e-06
0.000184306
-1.0052e-05
0.000185617
-1.03388e-05
0.000186963
-1.06044e-05
0.000188338
-1.085e-05
0.000189743
-1.10765e-05
0.000191173
-1.12849e-05
0.000192626
-1.14759e-05
0.0001941
-1.16501e-05
0.000195594
-1.1808e-05
0.000197105
-1.19503e-05
0.00019863
-1.20771e-05
0.000200168
-1.21891e-05
0.000201717
-1.22863e-05
0.000203275
-1.23692e-05
0.000204841
-1.24379e-05
0.000206411
-1.24927e-05
0.000207985
-1.25337e-05
0.000209561
-1.25611e-05
0.000211137
-1.25748e-05
0.000212711
-1.25751e-05
0.000214282
-1.2562e-05
0.000215847
-1.25355e-05
0.000217406
-1.24955e-05
0.000218956
-1.24421e-05
0.000220495
-1.23751e-05
0.000222023
-1.22946e-05
0.000223538
-1.22002e-05
0.000225037
-1.20919e-05
0.000226519
-1.19694e-05
0.000227983
-1.18325e-05
0.000229426
-1.16809e-05
0.000230848
-1.15141e-05
0.000232247
-1.13318e-05
0.000233621
-1.11335e-05
0.000234968
-1.09185e-05
0.000236288
-1.06862e-05
0.000237578
-1.0436e-05
0.000238837
-1.01668e-05
0.000240063
-9.87785e-06
0.000241256
-9.568e-06
0.000242414
-9.23606e-06
0.000243537
-8.88071e-06
0.000244622
-8.50045e-06
0.000245671
-8.09365e-06
0.000246683
-7.65853e-06
0.000247657
-7.19316e-06
0.000248596
-6.69545e-06
0.000249501
-6.16323e-06
0.000250374
-5.59422e-06
0.00025122
-4.98615e-06
0.000252044
-4.33682e-06
0.000252853
-3.64423e-06
0.000253658
-2.90675e-06
0.000254469
-2.12333e-06
0.000255303
-1.29369e-06
0.000256176
-4.1838e-07
0.000257111
5.00013e-07
0.000258129
1.456e-06
0.000259257
2.44153e-06
0.000260524
3.44632e-06
0.000261957
4.45666e-06
0.000263579
5.45556e-06
0.000265409
6.42292e-06
0.000267452
7.33642e-06
0.000269702
8.17318e-06
8.91261e-06
0.000272131
0.000183306
-1.29028e-06
0.000183586
-2.54718e-06
0.000183994
-3.64046e-06
0.000184518
-4.61417e-06
0.000185146
-5.48985e-06
0.000185871
-6.28207e-06
0.000186683
-7.00278e-06
0.000187574
-7.66163e-06
0.000188538
-8.26634e-06
0.00018957
-8.8231e-06
0.000190663
-9.33699e-06
0.000191813
-9.81223e-06
0.000193016
-1.02523e-05
0.000194267
-1.06602e-05
0.000195563
-1.10384e-05
0.000196901
-1.13891e-05
0.000198276
-1.17139e-05
0.000199687
-1.20145e-05
0.00020113
-1.22923e-05
0.000202602
-1.25482e-05
0.0002041
-1.27834e-05
0.000205624
-1.29987e-05
0.000207169
-1.31947e-05
0.000208733
-1.33722e-05
0.000210315
-1.35318e-05
0.000211912
-1.36738e-05
0.000213522
-1.37987e-05
0.000215143
-1.39069e-05
0.000216773
-1.39987e-05
0.00021841
-1.40744e-05
0.000220052
-1.41342e-05
0.000221697
-1.41783e-05
0.000223343
-1.42068e-05
0.000224989
-1.422e-05
0.000226632
-1.42178e-05
0.00022827
-1.42004e-05
0.000229903
-1.41678e-05
0.000231528
-1.41201e-05
0.000233143
-1.40572e-05
0.000234748
-1.3979e-05
0.000236339
-1.38855e-05
0.000237916
-1.37766e-05
0.000239476
-1.3652e-05
0.000241019
-1.35117e-05
0.000242542
-1.33554e-05
0.000244044
-1.31827e-05
0.000245523
-1.29933e-05
0.000246979
-1.2787e-05
0.000248409
-1.25631e-05
0.000249811
-1.23211e-05
0.000251186
-1.20606e-05
0.000252531
-1.17808e-05
0.000253846
-1.1481e-05
0.000255128
-1.11604e-05
0.000256379
-1.0818e-05
0.000257596
-1.0453e-05
0.000258779
-1.00641e-05
0.000259929
-9.65021e-06
0.000261046
-9.21014e-06
0.00026213
-8.74256e-06
0.000263183
-8.24611e-06
0.000264207
-7.71945e-06
0.000265205
-7.16126e-06
0.000266181
-6.57029e-06
0.000267141
-5.94551e-06
0.00026809
-5.28614e-06
0.000269038
-4.59179e-06
0.000269994
-3.86265e-06
0.00027097
-3.09965e-06
0.000271981
-2.30462e-06
0.000273043
-1.48041e-06
0.000274174
-6.30794e-07
0.000275392
2.38527e-07
0.000276714
1.11921e-06
0.00027816
2.00078e-06
0.000279745
2.87145e-06
0.000281482
3.71819e-06
0.000283378
4.5267e-06
0.000285432
5.28247e-06
0.000287634
5.97191e-06
6.584e-06
0.000289962
0.000196139
-1.42975e-06
0.000196428
-2.83589e-06
0.00019685
-4.06294e-06
0.000197394
-5.15765e-06
0.000198048
-6.14356e-06
0.000198802
-7.03623e-06
0.000199648
-7.84859e-06
0.000200578
-8.59128e-06
0.000201585
-9.27287e-06
0.000202662
-9.90027e-06
0.000203804
-1.04792e-05
0.000205007
-1.10143e-05
0.000206264
-1.15096e-05
0.000207573
-1.19684e-05
0.000208928
-1.23936e-05
0.000210327
-1.27874e-05
0.000211766
-1.31521e-05
0.000213241
-1.34892e-05
0.000214749
-1.38004e-05
0.000216288
-1.40869e-05
0.000217855
-1.43498e-05
0.000219447
-1.45901e-05
0.000221061
-1.48087e-05
0.000222696
-1.50062e-05
0.000224348
-1.51834e-05
0.000226015
-1.53407e-05
0.000227696
-1.54787e-05
0.000229387
-1.55978e-05
0.000231087
-1.56983e-05
0.000232794
-1.57806e-05
0.000234505
-1.5845e-05
0.000236219
-1.58917e-05
0.000237933
-1.59208e-05
0.000239646
-1.59326e-05
0.000241356
-1.59273e-05
0.000243061
-1.59048e-05
0.000244759
-1.58653e-05
0.000246448
-1.58088e-05
0.000248126
-1.57354e-05
0.000249793
-1.5645e-05
0.000251445
-1.55376e-05
0.000253082
-1.5413e-05
0.000254702
-1.52713e-05
0.000256302
-1.51121e-05
0.000257883
-1.49354e-05
0.000259441
-1.47409e-05
0.000260976
-1.45283e-05
0.000262487
-1.42973e-05
0.000263972
-1.40474e-05
0.000265429
-1.37784e-05
0.000266859
-1.34897e-05
0.000268259
-1.31808e-05
0.000269629
-1.28511e-05
0.000270969
-1.25e-05
0.000272278
-1.21268e-05
0.000273556
-1.17308e-05
0.000274803
-1.13113e-05
0.000276021
-1.08674e-05
0.000277209
-1.03983e-05
0.00027837
-9.90346e-06
0.000279506
-9.382e-06
0.00028062
-8.83335e-06
0.000281716
-8.25705e-06
0.000282799
-7.65285e-06
0.000283874
-7.02077e-06
0.000284949
-6.36122e-06
0.000286033
-5.6751e-06
0.000287134
-4.96391e-06
0.000288264
-4.22984e-06
0.000289436
-3.47596e-06
0.000290661
-2.70619e-06
0.000291956
-1.92541e-06
0.000293334
-1.13924e-06
0.000294807
-3.54042e-07
0.000296386
4.21771e-07
0.000298079
1.17871e-06
0.00029989
1.90677e-06
0.000301822
2.59568e-06
0.000303868
3.23651e-06
0.000306018
3.82127e-06
4.3442e-06
0.000308258
0.00020987
-1.57332e-06
0.000210168
-3.13348e-06
0.000210605
-4.49959e-06
0.000211167
-5.72043e-06
0.000211846
-6.82153e-06
0.000212629
-7.81938e-06
0.000213508
-8.72783e-06
0.000214476
-9.55849e-06
0.000215524
-1.03208e-05
0.000216646
-1.10223e-05
0.000217837
-1.16694e-05
0.00021909
-1.22673e-05
0.000220401
-1.28205e-05
0.000221766
-1.33325e-05
0.000223179
-1.38067e-05
0.000224638
-1.42457e-05
0.000226138
-1.46518e-05
0.000227676
-1.50269e-05
0.000229249
-1.53727e-05
0.000230853
-1.56908e-05
0.000232486
-1.59823e-05
0.000234145
-1.62484e-05
0.000235827
-1.649e-05
0.000237529
-1.67079e-05
0.000239249
-1.6903e-05
0.000240984
-1.70757e-05
0.000242733
-1.72267e-05
0.000244492
-1.73565e-05
0.00024626
-1.74655e-05
0.000248034
-1.7554e-05
0.000249812
-1.76225e-05
0.000251591
-1.76711e-05
0.000253371
-1.77002e-05
0.000255149
-1.771e-05
0.000256923
-1.77005e-05
0.000258691
-1.76721e-05
0.00026045
-1.76248e-05
0.000262201
-1.75586e-05
0.000263939
-1.74737e-05
0.000265665
-1.73701e-05
0.000267375
-1.72478e-05
0.000269069
-1.71067e-05
0.000270745
-1.69468e-05
0.000272401
-1.6768e-05
0.000274037
-1.65702e-05
0.000275649
-1.63532e-05
0.000277238
-1.61168e-05
0.000278802
-1.58608e-05
0.00028034
-1.5585e-05
0.000281851
-1.52891e-05
0.000283334
-1.49727e-05
0.000284789
-1.46355e-05
0.000286215
-1.42771e-05
0.000287613
-1.38972e-05
0.000288981
-1.34953e-05
0.000290322
-1.30711e-05
0.000291635
-1.26242e-05
0.000292922
-1.21542e-05
0.000294185
-1.16608e-05
0.000295425
-1.11439e-05
0.000296647
-1.06033e-05
0.000297853
-1.00392e-05
0.000299048
-9.45193e-06
0.000300237
-8.84195e-06
0.000301426
-8.21018e-06
0.000302623
-7.55793e-06
0.000303835
-6.88695e-06
0.000305071
-6.19954e-06
0.00030634
-5.49857e-06
0.000307651
-4.78758e-06
0.000309016
-4.07077e-06
0.000310444
-3.35298e-06
0.000311944
-2.63961e-06
0.000313527
-1.93653e-06
0.000315198
-1.24954e-06
0.000316962
-5.84839e-07
0.000318817
5.09624e-08
0.000320762
6.50776e-07
0.00032279
1.20877e-06
0.000324891
1.72008e-06
2.18172e-06
0.000327054
0.000224563
-1.72096e-06
0.000224869
-3.43965e-06
0.000225319
-4.94987e-06
0.000225901
-6.30181e-06
0.000226602
-7.52283e-06
0.000227413
-8.63042e-06
0.000228325
-9.63926e-06
0.000229329
-1.05619e-05
0.000230417
-1.14086e-05
0.000231582
-1.21876e-05
0.000232819
-1.2906e-05
0.000234122
-1.35695e-05
0.000235485
-1.4183e-05
0.000236903
-1.47506e-05
0.000238373
-1.52759e-05
0.000239889
-1.57618e-05
0.000241449
-1.62108e-05
0.000243047
-1.66252e-05
0.000244682
-1.70069e-05
0.000246349
-1.73575e-05
0.000248046
-1.76783e-05
0.000249769
-1.79708e-05
0.000251515
-1.82358e-05
0.000253282
-1.84745e-05
0.000255067
-1.86875e-05
0.000256867
-1.88756e-05
0.000258681
-1.90395e-05
0.000260504
-1.91797e-05
0.000262336
-1.92967e-05
0.000264174
-1.9391e-05
0.000266015
-1.9463e-05
0.000267857
-1.95129e-05
0.000269698
-1.95412e-05
0.000271537
-1.95481e-05
0.000273371
-1.95337e-05
0.000275197
-1.94984e-05
0.000277015
-1.94423e-05
0.000278823
-1.93655e-05
0.000280618
-1.92681e-05
0.000282398
-1.91504e-05
0.000284163
-1.90122e-05
0.000285911
-1.88537e-05
0.000287639
-1.86749e-05
0.000289347
-1.84758e-05
0.000291034
-1.82563e-05
0.000292698
-1.80165e-05
0.000294337
-1.77561e-05
0.000295952
-1.74753e-05
0.000297541
-1.71737e-05
0.000299104
-1.68514e-05
0.000300639
-1.65081e-05
0.000302148
-1.61439e-05
0.00030363
-1.57584e-05
0.000305085
-1.53518e-05
0.000306513
-1.49237e-05
0.000307917
-1.44743e-05
0.000309296
-1.40035e-05
0.000310654
-1.35114e-05
0.000311991
-1.29982e-05
0.000313312
-1.24643e-05
0.000314619
-1.19101e-05
0.000315916
-1.13364e-05
0.000317208
-1.07439e-05
0.0003185
-1.0134e-05
0.000319798
-9.50809e-06
0.000321109
-8.86807e-06
0.000322438
-8.21617e-06
0.000323794
-7.55505e-06
0.000325183
-6.88779e-06
0.000326613
-6.21793e-06
0.000328092
-5.54939e-06
0.000329626
-4.88646e-06
0.00033122
-4.23372e-06
0.000332879
-3.59595e-06
0.000334608
-2.97792e-06
0.000336407
-2.38435e-06
0.000338278
-1.8196e-06
0.000340216
-1.287e-06
0.000342214
-7.90023e-07
0.000344266
-3.31255e-07
8.80371e-08
0.00034636
0.000240284
-1.87253e-06
0.000240598
-3.75401e-06
0.000241061
-5.41307e-06
0.00024166
-6.90078e-06
0.000242384
-8.24623e-06
0.000243222
-9.46788e-06
0.000244164
-1.05812e-05
0.000245202
-1.15996e-05
0.000246328
-1.25342e-05
0.000247534
-1.3394e-05
0.000248815
-1.41866e-05
0.000250165
-1.49184e-05
0.000251577
-1.55947e-05
0.000253046
-1.622e-05
0.000254569
-1.67982e-05
0.00025614
-1.73326e-05
0.000257756
-1.7826e-05
0.000259412
-1.82809e-05
0.000261105
-1.86994e-05
0.000262832
-1.90833e-05
0.000264588
-1.94342e-05
0.000266371
-1.97535e-05
0.000268178
-2.00423e-05
0.000270006
-2.03017e-05
0.000271852
-2.05327e-05
0.000273713
-2.07361e-05
0.000275586
-2.09126e-05
0.00027747
-2.10629e-05
0.000279361
-2.11875e-05
0.000281258
-2.12869e-05
0.000283157
-2.13617e-05
0.000285057
-2.14122e-05
0.000286955
-2.14389e-05
0.00028885
-2.14419e-05
0.000290738
-2.14218e-05
0.000292619
-2.13787e-05
0.00029449
-2.13128e-05
0.000296349
-2.12244e-05
0.000298195
-2.11138e-05
0.000300027
-2.0981e-05
0.000301841
-2.08262e-05
0.000303637
-2.06496e-05
0.000305414
-2.04513e-05
0.00030717
-2.02313e-05
0.000308904
-1.99899e-05