/*--------------------------------*- C++ -*----------------------------------*\
| =========                 |                                                 |
| \\      /  F ield         | OpenFOAM: The Open Source CFD Toolbox           |
|  \\    /   O peration     | Version:  2106                                  |
|   \\  /    A nd           | Website:  www.openfoam.com                      |
|    \\/     M anipulation  |                                                 |
\*---------------------------------------------------------------------------*/
FoamFile
{
    version     2.0;
    format      ascii;
    arch        "LSB;label=32;scalar=64";
    class       volScalarField;
    location    "6";
    object      T;
}
// * * * * * * * * * * * * * * * * * * * * * * * * * * * * * * * * * * * * * //

dimensions      [0 0 0 1 0 0 0];

internalField   nonuniform List<scalar> 
12013
(
300.003
300.01
300.017
300.024
300.032
300.04
300.048
300.057
300.066
300.075
300.085
300.095
300.106
300.116
300.128
300.139
300.152
300.164
300.177
300.191
300.205
300.219
300.234
300.25
300.266
300.283
300.3
300.318
300.336
300.355
300.374
300.394
300.415
300.437
300.459
300.481
300.505
300.529
300.554
300.579
300.605
300.633
300.66
300.689
300.718
300.749
300.78
300.812
300.845
300.879
300.914
300.95
300.986
301.024
301.063
301.104
301.145
301.187
301.231
301.276
301.323
301.371
301.42
301.471
301.524
301.578
301.635
301.693
301.754
301.817
301.883
301.951
302.023
302.099
302.179
302.263
302.354
302.453
302.562
302.686
302.834
300.003
300.01
300.017
300.024
300.032
300.04
300.048
300.057
300.066
300.075
300.085
300.095
300.106
300.116
300.128
300.139
300.152
300.164
300.177
300.191
300.205
300.219
300.234
300.25
300.266
300.283
300.3
300.318
300.336
300.355
300.374
300.394
300.415
300.437
300.459
300.481
300.505
300.529
300.554
300.579
300.605
300.632
300.66
300.689
300.718
300.749
300.78
300.812
300.845
300.879
300.914
300.949
300.986
301.024
301.063
301.103
301.145
301.187
301.231
301.276
301.322
301.37
301.42
301.47
301.523
301.577
301.634
301.692
301.753
301.815
301.881
301.949
302.021
302.096
302.175
302.259
302.348
302.445
302.549
302.664
302.791
300.003
300.01
300.017
300.024
300.032
300.04
300.048
300.057
300.066
300.075
300.085
300.095
300.106
300.116
300.128
300.139
300.152
300.164
300.177
300.191
300.205
300.219
300.234
300.25
300.266
300.283
300.3
300.318
300.336
300.355
300.374
300.394
300.415
300.436
300.459
300.481
300.505
300.529
300.553
300.579
300.605
300.632
300.66
300.689
300.718
300.748
300.78
300.812
300.845
300.878
300.913
300.949
300.986
301.024
301.063
301.103
301.144
301.186
301.23
301.275
301.321
301.369
301.418
301.469
301.521
301.576
301.632
301.69
301.75
301.812
301.877
301.945
302.015
302.089
302.167
302.249
302.336
302.427
302.525
302.629
302.737
300.003
300.01
300.017
300.024
300.032
300.04
300.048
300.057
300.066
300.075
300.085
300.095
300.106
300.116
300.128
300.139
300.152
300.164
300.177
300.191
300.205
300.219
300.234
300.25
300.266
300.283
300.3
300.318
300.336
300.355
300.374
300.394
300.415
300.436
300.458
300.481
300.504
300.529
300.553
300.579
300.605
300.632
300.66
300.688
300.718
300.748
300.779
300.811
300.844
300.878
300.913
300.948
300.985
301.023
301.062
301.102
301.143
301.185
301.229
301.274
301.32
301.367
301.416
301.467
301.519
301.573
301.628
301.686
301.745
301.807
301.871
301.938
302.007
302.079
302.155
302.234
302.316
302.403
302.493
302.585
302.679
300.003
300.01
300.017
300.024
300.032
300.04
300.048
300.057
300.066
300.075
300.085
300.095
300.105
300.116
300.128
300.139
300.152
300.164
300.177
300.191
300.205
300.219
300.234
300.25
300.266
300.283
300.3
300.317
300.336
300.355
300.374
300.394
300.415
300.436
300.458
300.481
300.504
300.528
300.553
300.579
300.605
300.632
300.659
300.688
300.717
300.748
300.779
300.811
300.843
300.877
300.912
300.947
300.984
301.022
301.06
301.1
301.141
301.183
301.227
301.271
301.317
301.365
301.413
301.463
301.515
301.568
301.623
301.68
301.739
301.8
301.863
301.928
301.995
302.065
302.138
302.213
302.291
302.372
302.454
302.537
302.62
300.003
300.01
300.017
300.024
300.032
300.04
300.048
300.057
300.066
300.075
300.085
300.095
300.105
300.116
300.128
300.139
300.152
300.164
300.177
300.191
300.205
300.219
300.234
300.25
300.266
300.282
300.3
300.317
300.336
300.354
300.374
300.394
300.415
300.436
300.458
300.481
300.504
300.528
300.553
300.578
300.604
300.631
300.659
300.687
300.717
300.747
300.778
300.81
300.842
300.876
300.911
300.946
300.983
301.02
301.059
301.098
301.139
301.181
301.224
301.268
301.314
301.361
301.409
301.459
301.51
301.562
301.617
301.673
301.73
301.79
301.851
301.914
301.98
302.047
302.117
302.188
302.261
302.336
302.411
302.486
302.561
300.003
300.01
300.017
300.024
300.032
300.04
300.048
300.057
300.066
300.075
300.085
300.095
300.105
300.116
300.128
300.139
300.151
300.164
300.177
300.191
300.205
300.219
300.234
300.25
300.266
300.282
300.299
300.317
300.335
300.354
300.374
300.394
300.414
300.436
300.458
300.48
300.504
300.527
300.552
300.578
300.604
300.631
300.658
300.687
300.716
300.746
300.777
300.809
300.841
300.875
300.909
300.944
300.981
301.018
301.056
301.096
301.136
301.178
301.221
301.265
301.31
301.356
301.404
301.453
301.503
301.555
301.608
301.663
301.719
301.777
301.837
301.898
301.961
302.025
302.091
302.158
302.227
302.295
302.365
302.433
302.501
300.003
300.01
300.017
300.024
300.032
300.04
300.048
300.057
300.066
300.075
300.085
300.095
300.105
300.116
300.128
300.139
300.151
300.164
300.177
300.191
300.205
300.219
300.234
300.25
300.266
300.282
300.299
300.317
300.335
300.354
300.373
300.393
300.414
300.435
300.457
300.48
300.503
300.527
300.552
300.577
300.603
300.63
300.657
300.686
300.715
300.745
300.775
300.807
300.839
300.873
300.907
300.942
300.978
301.015
301.053
301.093
301.133
301.174
301.216
301.26
301.304
301.35
301.397
301.445
301.495
301.545
301.597
301.651
301.706
301.762
301.819
301.878
301.938
301.999
302.062
302.125
302.188
302.252
302.316
302.379
302.44
300.003
300.01
300.017
300.024
300.032
300.04
300.048
300.057
300.066
300.075
300.085
300.095
300.105
300.116
300.127
300.139
300.151
300.164
300.177
300.19
300.204
300.219
300.234
300.249
300.265
300.282
300.299
300.317
300.335
300.354
300.373
300.393
300.414
300.435
300.457
300.479
300.502
300.526
300.551
300.576
300.602
300.629
300.656
300.684
300.713
300.743
300.774
300.805
300.837
300.871
300.905
300.939
300.975
301.012
301.05
301.088
301.128
301.169
301.211
301.253
301.297
301.342
301.388
301.436
301.484
301.534
301.584
301.636
301.689
301.744
301.799
301.855
301.912
301.97
302.029
302.088
302.147
302.206
302.265
302.323
302.38
300.003
300.01
300.017
300.024
300.032
300.04
300.048
300.057
300.066
300.075
300.085
300.095
300.105
300.116
300.127
300.139
300.151
300.164
300.177
300.19
300.204
300.219
300.234
300.249
300.265
300.282
300.299
300.316
300.334
300.353
300.373
300.392
300.413
300.434
300.456
300.478
300.502
300.525
300.55
300.575
300.601
300.627
300.655
300.683
300.712
300.741
300.772
300.803
300.835
300.868
300.901
300.936
300.972
301.008
301.045
301.083
301.123
301.163
301.204
301.246
301.289
301.333
301.378
301.425
301.472
301.52
301.569
301.619
301.67
301.722
301.775
301.829
301.883
301.938
301.993
302.048
302.103
302.158
302.212
302.266
302.318
300.003
300.01
300.017
300.024
300.032
300.04
300.048
300.057
300.066
300.075
300.085
300.095
300.105
300.116
300.127
300.139
300.151
300.164
300.177
300.19
300.204
300.218
300.233
300.249
300.265
300.281
300.298
300.316
300.334
300.353
300.372
300.392
300.412
300.433
300.455
300.477
300.501
300.524
300.549
300.574
300.599
300.626
300.653
300.681
300.709
300.739
300.769
300.8
300.832
300.864
300.898
300.932
300.967
301.003
301.04
301.077
301.116
301.155
301.196
301.237
301.279
301.322
301.366
301.411
301.457
301.504
301.551
301.6
301.649
301.698
301.749
301.8
301.851
301.902
301.954
302.006
302.057
302.108
302.158
302.208
302.257
300.003
300.01
300.017
300.024
300.032
300.04
300.048
300.057
300.066
300.075
300.085
300.095
300.105
300.116
300.127
300.139
300.151
300.163
300.176
300.19
300.204
300.218
300.233
300.248
300.264
300.281
300.298
300.315
300.333
300.352
300.371
300.391
300.411
300.432
300.454
300.476
300.499
300.523
300.547
300.572
300.597
300.624
300.651
300.678
300.707
300.736
300.766
300.797
300.828
300.86
300.893
300.927
300.962
300.997
301.033
301.07
301.108
301.147
301.186
301.227
301.268
301.31
301.352
301.396
301.44
301.485
301.531
301.577
301.624
301.672
301.719
301.767
301.816
301.864
301.913
301.961
302.009
302.056
302.103
302.149
302.194
300.003
300.01
300.017
300.024
300.032
300.04
300.048
300.057
300.066
300.075
300.084
300.094
300.105
300.116
300.127
300.139
300.151
300.163
300.176
300.19
300.203
300.218
300.233
300.248
300.264
300.28
300.297
300.315
300.333
300.351
300.37
300.39
300.41
300.431
300.453
300.475
300.498
300.521
300.545
300.57
300.595
300.621
300.648
300.676
300.704
300.733
300.762
300.792
300.823
300.855
300.888
300.921
300.955
300.99
301.025
301.062
301.099
301.137
301.175
301.214
301.254
301.295
301.337
301.379
301.421
301.464
301.508
301.552
301.597
301.642
301.687
301.733
301.778
301.824
301.869
301.914
301.959
302.003
302.047
302.09
302.132
300.003
300.01
300.017
300.024
300.032
300.04
300.048
300.057
300.065
300.075
300.084
300.094
300.105
300.116
300.127
300.138
300.15
300.163
300.176
300.189
300.203
300.217
300.232
300.248
300.263
300.28
300.297
300.314
300.332
300.35
300.369
300.389
300.409
300.43
300.451
300.473
300.496
300.519
300.543
300.568
300.593
300.619
300.645
300.672
300.7
300.729
300.758
300.788
300.818
300.849
300.881
300.914
300.948
300.982
301.016
301.052
301.088
301.125
301.162
301.201
301.239
301.279
301.319
301.359
301.4
301.441
301.483
301.525
301.568
301.61
301.653
301.696
301.739
301.781
301.824
301.866
301.907
301.949
301.989
302.029
302.069
300.003
300.01
300.017
300.024
300.032
300.04
300.048
300.056
300.065
300.075
300.084
300.094
300.105
300.115
300.127
300.138
300.15
300.163
300.175
300.189
300.203
300.217
300.232
300.247
300.263
300.279
300.296
300.313
300.331
300.349
300.368
300.388
300.408
300.428
300.45
300.471
300.494
300.517
300.541
300.565
300.59
300.615
300.641
300.668
300.696
300.724
300.753
300.782
300.812
300.843
300.874
300.906
300.939
300.972
301.006
301.041
301.076
301.112
301.148
301.185
301.222
301.26
301.298
301.337
301.376
301.416
301.456
301.496
301.536
301.576
301.616
301.657
301.697
301.737
301.776
301.816
301.855
301.893
301.931
301.968
302.005
300.003
300.01
300.017
300.024
300.032
300.04
300.048
300.056
300.065
300.074
300.084
300.094
300.104
300.115
300.126
300.138
300.15
300.162
300.175
300.188
300.202
300.216
300.231
300.246
300.262
300.278
300.295
300.312
300.33
300.348
300.367
300.386
300.406
300.427
300.448
300.469
300.491
300.514
300.538
300.562
300.586
300.611
300.637
300.664
300.691
300.718
300.747
300.775
300.805
300.835
300.866
300.897
300.929
300.961
300.994
301.028
301.062
301.097
301.132
301.167
301.203
301.24
301.276
301.313
301.351
301.388
301.426
301.464
301.502
301.54
301.578
301.616
301.653
301.691
301.728
301.764
301.801
301.837
301.872
301.907
301.941
300.003
300.01
300.017
300.024
300.032
300.04
300.048
300.056
300.065
300.074
300.084
300.094
300.104
300.115
300.126
300.137
300.149
300.162
300.174
300.188
300.201
300.216
300.23
300.245
300.261
300.277
300.294
300.311
300.328
300.346
300.365
300.384
300.404
300.424
300.445
300.467
300.489
300.511
300.534
300.558
300.582
300.607
300.632
300.658
300.685
300.712
300.74
300.768
300.797
300.826
300.856
300.887
300.918
300.949
300.981
301.014
301.046
301.08
301.114
301.148
301.182
301.217
301.252
301.287
301.323
301.358
301.394
301.43
301.466
301.502
301.537
301.573
301.608
301.643
301.678
301.712
301.746
301.78
301.813
301.845
301.877
300.003
300.01
300.017
300.024
300.032
300.039
300.048
300.056
300.065
300.074
300.084
300.093
300.104
300.114
300.125
300.137
300.149
300.161
300.174
300.187
300.201
300.215
300.229
300.244
300.26
300.276
300.292
300.309
300.327
300.345
300.363
300.382
300.402
300.422
300.442
300.463
300.485
300.507
300.53
300.553
300.577
300.602
300.627
300.652
300.678
300.705
300.732
300.759
300.788
300.816
300.845
300.875
300.905
300.935
300.966
300.998
301.029
301.061
301.094
301.126
301.159
301.193
301.226
301.259
301.293
301.327
301.361
301.394
301.428
301.462
301.495
301.528
301.561
301.594
301.627
301.659
301.69
301.722
301.752
301.783
301.813
300.003
300.01
300.017
300.024
300.031
300.039
300.047
300.056
300.065
300.074
300.083
300.093
300.103
300.114
300.125
300.136
300.148
300.16
300.173
300.186
300.2
300.214
300.228
300.243
300.258
300.274
300.291
300.307
300.325
300.343
300.361
300.38
300.399
300.419
300.439
300.46
300.481
300.503
300.526
300.548
300.572
300.596
300.62
300.645
300.671
300.697
300.723
300.75
300.777
300.805
300.833
300.862
300.891
300.92
300.95
300.98
301.011
301.041
301.072
301.103
301.135
301.166
301.198
301.23
301.262
301.293
301.325
301.357
301.389
301.42
301.452
301.483
301.514
301.544
301.575
301.605
301.634
301.663
301.692
301.72
301.748
300.003
300.01
300.017
300.024
300.031
300.039
300.047
300.056
300.064
300.073
300.083
300.093
300.103
300.114
300.124
300.136
300.148
300.16
300.172
300.185
300.199
300.213
300.227
300.242
300.257
300.273
300.289
300.305
300.323
300.34
300.358
300.377
300.396
300.415
300.435
300.456
300.477
300.498
300.52
300.543
300.566
300.589
300.613
300.637
300.662
300.687
300.713
300.739
300.766
300.792
300.82
300.847
300.875
300.904
300.932
300.961
300.99
301.019
301.049
301.079
301.108
301.138
301.168
301.198
301.228
301.258
301.288
301.318
301.348
301.378
301.407
301.436
301.465
301.494
301.522
301.55
301.577
301.605
301.632
301.658
301.684
300.003
300.01
300.017
300.024
300.031
300.039
300.047
300.055
300.064
300.073
300.083
300.092
300.102
300.113
300.124
300.135
300.147
300.159
300.171
300.184
300.198
300.211
300.226
300.24
300.255
300.271
300.287
300.303
300.32
300.337
300.355
300.374
300.392
300.411
300.431
300.451
300.472
300.493
300.514
300.536
300.559
300.582
300.605
300.629
300.653
300.677
300.702
300.727
300.753
300.779
300.805
300.832
300.858
300.886
300.913
300.94
300.968
300.996
301.024
301.052
301.081
301.109
301.137
301.166
301.194
301.222
301.25
301.278
301.306
301.334
301.361
301.389
301.416
301.442
301.469
301.495
301.521
301.546
301.571
301.596
301.62
300.003
300.01
300.017
300.024
300.031
300.039
300.047
300.055
300.064
300.073
300.082
300.092
300.102
300.112
300.123
300.134
300.146
300.158
300.17
300.183
300.196
300.21
300.224
300.238
300.253
300.269
300.284
300.301
300.317
300.334
300.352
300.37
300.388
300.407
300.426
300.446
300.466
300.487
300.508
300.529
300.551
300.573
300.596
300.619
300.642
300.666
300.69
300.714
300.739
300.764
300.789
300.814
300.84
300.866
300.892
300.918
300.945
300.971
300.998
301.025
301.051
301.078
301.105
301.131
301.158
301.185
301.211
301.237
301.263
301.289
301.315
301.34
301.366
301.391
301.415
301.44
301.464
301.487
301.511
301.534
301.556
300.003
300.01
300.016
300.024
300.031
300.039
300.046
300.055
300.063
300.072
300.082
300.091
300.101
300.112
300.122
300.133
300.145
300.157
300.169
300.182
300.195
300.208
300.222
300.236
300.251
300.266
300.282
300.298
300.314
300.331
300.348
300.366
300.384
300.402
300.421
300.44
300.46
300.48
300.5
300.521
300.542
300.564
300.586
300.608
300.631
300.653
300.677
300.7
300.724
300.748
300.772
300.796
300.821
300.845
300.87
300.895
300.92
300.945
300.97
300.996
301.021
301.046
301.071
301.096
301.121
301.146
301.171
301.195
301.22
301.244
301.268
301.292
301.315
301.339
301.362
301.384
301.407
301.429
301.451
301.472
301.493
300.003
300.01
300.016
300.023
300.031
300.038
300.046
300.054
300.063
300.072
300.081
300.091
300.1
300.111
300.121
300.132
300.144
300.155
300.167
300.18
300.193
300.206
300.22
300.234
300.248
300.263
300.279
300.294
300.31
300.327
300.344
300.361
300.379
300.397
300.415
300.434
300.453
300.472
300.492
300.512
300.533
300.554
300.575
300.596
300.618
300.64
300.662
300.685
300.707
300.73
300.753
300.777
300.8
300.823
300.847
300.871
300.894
300.918
300.942
300.966
300.989
301.013
301.037
301.06
301.084
301.107
301.13
301.153
301.176
301.198
301.221
301.243
301.265
301.287
301.308
301.329
301.35
301.371
301.391
301.411
301.431
300.003
300.01
300.016
300.023
300.03
300.038
300.046
300.054
300.062
300.071
300.08
300.09
300.1
300.11
300.12
300.131
300.142
300.154
300.166
300.178
300.191
300.204
300.217
300.231
300.245
300.26
300.275
300.29
300.306
300.322
300.339
300.356
300.373
300.39
300.408
300.427
300.445
300.464
300.483
300.503
300.523
300.543
300.563
300.584
300.605
300.626
300.647
300.669
300.69
300.712
300.734
300.756
300.778
300.8
300.823
300.845
300.868
300.89
300.912
300.935
300.957
300.979
301.001
301.023
301.045
301.067
301.089
301.11
301.132
301.153
301.174
301.194
301.215
301.235
301.255
301.275
301.294
301.314
301.333
301.351
301.37
300.003
300.009
300.016
300.023
300.03
300.038
300.045
300.053
300.062
300.071
300.08
300.089
300.099
300.109
300.119
300.13
300.141
300.152
300.164
300.176
300.189
300.201
300.215
300.228
300.242
300.257
300.271
300.286
300.302
300.317
300.334
300.35
300.367
300.384
300.401
300.419
300.437
300.455
300.474
300.493
300.512
300.531
300.551
300.57
300.59
300.611
300.631
300.651
300.672
300.693
300.714
300.735
300.756
300.777
300.798
300.819
300.84
300.861
300.882
300.903
300.924
300.945
300.966
300.986
301.007
301.027
301.048
301.068
301.087
301.107
301.127
301.146
301.165
301.184
301.203
301.221
301.239
301.257
301.275
301.292
301.309
300.003
300.009
300.016
300.023
300.03
300.037
300.045
300.053
300.061
300.07
300.079
300.088
300.098
300.107
300.118
300.128
300.139
300.15
300.162
300.174
300.186
300.199
300.212
300.225
300.239
300.253
300.267
300.282
300.297
300.312
300.328
300.344
300.36
300.377
300.393
300.411
300.428
300.446
300.463
300.482
300.5
300.518
300.537
300.556
300.575
300.595
300.614
300.633
300.653
300.673
300.693
300.712
300.732
300.752
300.772
300.792
300.812
300.832
300.851
300.871
300.891
300.91
300.93
300.949
300.968
300.987
301.006
301.025
301.044
301.062
301.08
301.098
301.116
301.134
301.151
301.168
301.185
301.202
301.218
301.234
301.25
300.003
300.009
300.016
300.023
300.03
300.037
300.044
300.052
300.06
300.069
300.078
300.087
300.096
300.106
300.116
300.127
300.137
300.148
300.16
300.171
300.183
300.196
300.209
300.222
300.235
300.249
300.263
300.277
300.291
300.306
300.322
300.337
300.353
300.369
300.385
300.402
300.418
300.435
300.453
300.47
300.488
300.505
300.523
300.541
300.559
300.578
300.596
300.615
300.633
300.652
300.671
300.69
300.708
300.727
300.746
300.765
300.783
300.802
300.821
300.839
300.857
300.876
300.894
300.912
300.93
300.948
300.965
300.983
301
301.017
301.034
301.051
301.068
301.084
301.1
301.116
301.132
301.148
301.163
301.178
301.193
300.003
300.009
300.016
300.022
300.029
300.036
300.044
300.052
300.06
300.068
300.077
300.086
300.095
300.105
300.114
300.125
300.135
300.146
300.157
300.169
300.18
300.193
300.205
300.218
300.231
300.244
300.258
300.272
300.286
300.3
300.315
300.33
300.345
300.361
300.376
300.392
300.408
300.425
300.441
300.458
300.475
300.492
300.509
300.526
300.543
300.561
300.578
300.596
300.613
300.631
300.649
300.666
300.684
300.702
300.72
300.737
300.755
300.772
300.79
300.807
300.824
300.841
300.858
300.875
300.892
300.909
300.925
300.942
300.958
300.974
300.99
301.005
301.021
301.036
301.051
301.066
301.081
301.095
301.11
301.124
301.138
300.003
300.009
300.015
300.022
300.029
300.036
300.043
300.051
300.059
300.067
300.076
300.084
300.094
300.103
300.113
300.123
300.133
300.144
300.155
300.166
300.177
300.189
300.201
300.214
300.226
300.239
300.252
300.266
300.28
300.294
300.308
300.322
300.337
300.352
300.367
300.382
300.398
300.413
300.429
300.445
300.461
300.477
300.494
300.51
300.527
300.543
300.56
300.576
300.593
300.61
300.626
300.643
300.66
300.677
300.693
300.71
300.726
300.743
300.759
300.775
300.792
300.808
300.824
300.839
300.855
300.871
300.886
300.901
300.916
300.931
300.946
300.961
300.975
300.989
301.004
301.018
301.031
301.045
301.058
301.071
301.084
300.003
300.009
300.015
300.022
300.028
300.035
300.043
300.05
300.058
300.066
300.074
300.083
300.092
300.101
300.111
300.121
300.131
300.141
300.152
300.163
300.174
300.185
300.197
300.209
300.222
300.234
300.247
300.26
300.273
300.287
300.3
300.314
300.329
300.343
300.357
300.372
300.387
300.402
300.417
300.432
300.448
300.463
300.478
300.494
300.51
300.525
300.541
300.557
300.573
300.589
300.604
300.62
300.636
300.652
300.667
300.683
300.698
300.714
300.729
300.744
300.76
300.775
300.79
300.804
300.819
300.834
300.848
300.862
300.876
300.89
300.904
300.918
300.931
300.945
300.958
300.971
300.984
300.996
301.009
301.021
301.033
300.003
300.009
300.015
300.021
300.028
300.035
300.042
300.049
300.057
300.065
300.073
300.082
300.09
300.099
300.109
300.118
300.128
300.138
300.149
300.159
300.17
300.182
300.193
300.205
300.217
300.229
300.241
300.254
300.267
300.28
300.293
300.306
300.32
300.334
300.348
300.362
300.376
300.39
300.405
300.419
300.434
300.448
300.463
300.478
300.493
300.508
300.523
300.538
300.553
300.568
300.582
300.597
300.612
300.627
300.642
300.656
300.671
300.686
300.7
300.714
300.729
300.743
300.757
300.771
300.784
300.798
300.811
300.825
300.838
300.851
300.864
300.877
300.889
300.902
300.914
300.926
300.938
300.95
300.962
300.973
300.985
300.003
300.009
300.015
300.021
300.027
300.034
300.041
300.048
300.056
300.064
300.072
300.08
300.089
300.097
300.107
300.116
300.126
300.135
300.146
300.156
300.167
300.178
300.189
300.2
300.212
300.223
300.235
300.248
300.26
300.273
300.285
300.298
300.311
300.324
300.338
300.351
300.365
300.379
300.392
300.406
300.42
300.434
300.448
300.462
300.476
300.491
300.505
300.519
300.533
300.547
300.561
300.575
300.589
300.603
300.617
300.631
300.645
300.658
300.672
300.685
300.699
300.712
300.725
300.738
300.751
300.764
300.777
300.789
300.802
300.814
300.826
300.838
300.85
300.862
300.873
300.885
300.896
300.907
300.918
300.929
300.939
300.003
300.008
300.014
300.02
300.027
300.033
300.04
300.047
300.055
300.062
300.07
300.078
300.087
300.096
300.104
300.114
300.123
300.133
300.142
300.153
300.163
300.173
300.184
300.195
300.206
300.218
300.23
300.241
300.253
300.265
300.278
300.29
300.303
300.315
300.328
300.341
300.354
300.367
300.38
300.394
300.407
300.42
300.434
300.447
300.46
300.474
300.487
300.501
300.514
300.528
300.541
300.554
300.568
300.581
300.594
300.607
300.62
300.633
300.646
300.658
300.671
300.683
300.696
300.708
300.72
300.732
300.744
300.756
300.768
300.779
300.791
300.802
300.813
300.824
300.835
300.846
300.856
300.867
300.877
300.887
300.897
300.003
300.008
300.014
300.02
300.026
300.033
300.04
300.047
300.054
300.061
300.069
300.077
300.085
300.094
300.102
300.111
300.12
300.13
300.139
300.149
300.159
300.169
300.18
300.191
300.202
300.213
300.224
300.235
300.247
300.258
300.27
300.282
300.294
300.306
300.319
300.331
300.344
300.356
300.369
300.382
300.394
300.407
300.42
300.433
300.445
300.458
300.471
300.484
300.496
300.509
300.522
300.534
300.547
300.56
300.572
300.584
300.597
300.609
300.621
300.633
300.645
300.657
300.668
300.68
300.692
300.703
300.714
300.725
300.736
300.747
300.758
300.769
300.779
300.789
300.8
300.81
300.82
300.83
300.839
300.849
300.858
300.003
300.008
300.014
300.02
300.026
300.032
300.039
300.046
300.053
300.06
300.068
300.075
300.083
300.092
300.1
300.109
300.118
300.127
300.136
300.146
300.156
300.166
300.176
300.186
300.197
300.207
300.218
300.229
300.24
300.252
300.263
300.275
300.286
300.298
300.31
300.322
300.334
300.346
300.358
300.37
300.382
300.395
300.407
300.419
300.431
300.444
300.456
300.468
300.48
300.492
300.504
300.516
300.528
300.54
300.552
300.564
300.576
300.587
300.599
300.61
300.621
300.633
300.644
300.655
300.666
300.676
300.687
300.698
300.708
300.718
300.729
300.739
300.749
300.758
300.768
300.778
300.787
300.796
300.806
300.815
300.823
300.003
300.008
300.014
300.019
300.025
300.032
300.038
300.045
300.052
300.059
300.066
300.074
300.082
300.09
300.098
300.107
300.115
300.124
300.133
300.143
300.152
300.162
300.172
300.182
300.192
300.203
300.213
300.224
300.235
300.246
300.257
300.268
300.279
300.291
300.302
300.314
300.325
300.337
300.348
300.36
300.372
300.384
300.395
300.407
300.419
300.431
300.442
300.454
300.466
300.477
300.489
300.5
300.512
300.523
300.534
300.546
300.557
300.568
300.579
300.59
300.601
300.611
300.622
300.632
300.643
300.653
300.663
300.673
300.683
300.693
300.703
300.712
300.722
300.731
300.74
300.749
300.758
300.767
300.776
300.785
300.793
300.003
300.008
300.013
300.019
300.025
300.031
300.037
300.044
300.051
300.058
300.065
300.073
300.08
300.088
300.096
300.105
300.113
300.122
300.131
300.14
300.149
300.159
300.169
300.178
300.188
300.199
300.209
300.219
300.23
300.24
300.251
300.262
300.273
300.284
300.295
300.306
300.317
300.329
300.34
300.351
300.363
300.374
300.385
300.397
300.408
300.419
300.431
300.442
300.453
300.464
300.475
300.487
300.498
300.509
300.519
300.53
300.541
300.552
300.562
300.573
300.583
300.593
300.603
300.614
300.623
300.633
300.643
300.653
300.662
300.672
300.681
300.69
300.699
300.708
300.717
300.726
300.734
300.743
300.751
300.759
300.768
300.003
300.008
300.013
300.019
300.025
300.031
300.037
300.043
300.05
300.057
300.064
300.072
300.079
300.087
300.095
300.103
300.111
300.12
300.129
300.138
300.147
300.156
300.166
300.175
300.185
300.195
300.205
300.215
300.226
300.236
300.247
300.257
300.268
300.279
300.289
300.3
300.311
300.322
300.333
300.344
300.355
300.366
300.377
300.388
300.399
300.41
300.421
300.432
300.443
300.454
300.465
300.476
300.486
300.497
300.507
300.518
300.528
300.539
300.549
300.559
300.569
300.579
300.589
300.599
300.608
300.618
300.627
300.637
300.646
300.655
300.664
300.673
300.682
300.69
300.699
300.707
300.715
300.724
300.732
300.74
300.748
300.003
300.008
300.013
300.019
300.024
300.03
300.036
300.043
300.05
300.056
300.063
300.071
300.078
300.086
300.094
300.102
300.11
300.119
300.127
300.136
300.145
300.154
300.164
300.173
300.183
300.193
300.203
300.213
300.223
300.233
300.243
300.254
300.264
300.275
300.285
300.296
300.307
300.318
300.328
300.339
300.35
300.361
300.372
300.382
300.393
300.404
300.415
300.426
300.436
300.447
300.457
300.468
300.478
300.489
300.499
300.509
300.52
300.53
300.54
300.549
300.559
300.569
300.579
300.588
300.598
300.607
300.616
300.625
300.634
300.643
300.652
300.661
300.669
300.678
300.686
300.694
300.702
300.71
300.718
300.726
300.734
300.002
300.008
300.013
300.018
300.024
300.03
300.036
300.043
300.049
300.056
300.063
300.07
300.078
300.085
300.093
300.101
300.109
300.118
300.126
300.135
300.144
300.153
300.163
300.172
300.182
300.191
300.201
300.211
300.221
300.231
300.242
300.252
300.262
300.273
300.283
300.294
300.304
300.315
300.326
300.337
300.347
300.358
300.369
300.379
300.39
300.401
300.411
300.422
300.432
300.443
300.453
300.464
300.474
300.484
300.495
300.505
300.515
300.525
300.535
300.544
300.554
300.564
300.573
300.583
300.592
300.601
300.61
300.619
300.628
300.637
300.646
300.654
300.663
300.671
300.679
300.687
300.695
300.703
300.711
300.719
300.726
303.029
303.158
303.236
303.309
303.372
303.424
303.459
303.499
303.539
303.576
303.607
303.642
303.677
303.711
303.745
303.778
303.809
303.837
303.866
303.896
303.925
303.955
303.985
304.014
304.043
304.072
304.1
304.128
304.156
304.183
304.21
304.237
304.263
304.29
304.316
304.341
304.367
304.393
304.418
304.443
304.468
304.491
304.517
304.545
304.571
304.596
304.619
304.645
304.671
304.696
304.721
304.743
304.767
304.792
304.818
304.843
304.869
304.895
304.92
304.944
304.965
304.988
305.011
305.035
305.06
305.084
305.108
305.133
305.157
305.18
305.204
305.227
305.25
305.273
305.296
305.319
305.341
305.364
305.386
305.41
305.437
305.461
305.483
305.505
305.526
305.545
305.568
305.594
305.617
305.637
305.656
305.678
305.702
305.723
305.745
305.77
305.792
305.811
305.834
305.855
305.874
305.895
305.913
305.933
305.955
305.978
305.998
306.014
306.033
306.049
306.067
306.087
306.107
306.127
306.145
306.159
306.175
306.193
306.211
306.226
306.238
306.252
306.266
306.28
306.294
306.303
306.314
306.325
306.335
306.345
306.353
306.361
306.367
306.372
306.375
306.378
306.378
306.378
306.375
306.372
306.366
306.358
306.349
306.337
306.323
306.307
306.288
306.266
306.241
306.211
306.174
306.136
306.097
306.052
306.002
305.945
305.882
305.777
305.68
305.559
305.402
302.928
303.042
303.13
303.206
303.271
303.326
303.373
303.417
303.459
303.498
303.534
303.571
303.607
303.642
303.677
303.71
303.743
303.773
303.804
303.834
303.865
303.895
303.925
303.955
303.984
304.013
304.042
304.071
304.099
304.126
304.154
304.181
304.208
304.235
304.262
304.288
304.314
304.34
304.365
304.391
304.416
304.441
304.467
304.493
304.52
304.545
304.57
304.595
304.621
304.646
304.671
304.695
304.719
304.744
304.77
304.795
304.821
304.847
304.872
304.896
304.918
304.941
304.965
304.989
305.014
305.038
305.063
305.087
305.112
305.135
305.159
305.183
305.206
305.229
305.252
305.275
305.298
305.321
305.344
305.368
305.394
305.418
305.441
305.463
305.484
305.505
305.528
305.552
305.575
305.596
305.617
305.639
305.662
305.684
305.707
305.73
305.753
305.773
305.795
305.817
305.836
305.857
305.876
305.897
305.918
305.94
305.96
305.978
305.996
306.014
306.032
306.052
306.072
306.092
306.109
306.124
306.141
306.159
306.176
306.191
306.204
306.218
306.233
306.247
306.26
306.27
306.281
306.292
306.303
306.312
306.321
306.328
306.334
306.34
306.343
306.346
306.347
306.346
306.344
306.34
306.334
306.327
306.318
306.306
306.292
306.276
306.257
306.235
306.209
306.179
306.142
306.104
306.064
306.018
305.966
305.907
305.84
305.738
305.636
305.509
305.337
302.846
302.945
303.031
303.107
303.173
303.232
303.284
303.331
303.376
303.418
303.457
303.496
303.533
303.569
303.605
303.64
303.673
303.705
303.737
303.769
303.8
303.831
303.861
303.892
303.922
303.951
303.981
304.01
304.038
304.066
304.094
304.122
304.15
304.177
304.204
304.23
304.257
304.283
304.309
304.335
304.361
304.386
304.413