/*--------------------------------*- C++ -*----------------------------------*\
| =========                 |                                                 |
| \\      /  F ield         | OpenFOAM: The Open Source CFD Toolbox           |
|  \\    /   O peration     | Version:  2106                                  |
|   \\  /    A nd           | Website:  www.openfoam.com                      |
|    \\/     M anipulation  |                                                 |
\*---------------------------------------------------------------------------*/
FoamFile
{
    version     2.0;
    format      ascii;
    arch        "LSB;label=32;scalar=64";
    class       volVectorField;
    location    "6";
    object      U;
}
// * * * * * * * * * * * * * * * * * * * * * * * * * * * * * * * * * * * * * //

dimensions      [0 1 -1 0 0 0 0];

internalField   nonuniform List<vector> 
12013
(
(0.100036 -1.00021e-05 0)
(0.100183 -1.84901e-05 0)
(0.10042 -2.63649e-05 0)
(0.100728 -3.36325e-05 0)
(0.101099 -4.04683e-05 0)
(0.101527 -4.69707e-05 0)
(0.102008 -5.32037e-05 0)
(0.102536 -5.92174e-05 0)
(0.103108 -6.50506e-05 0)
(0.103721 -7.07335e-05 0)
(0.104371 -7.62894e-05 0)
(0.105055 -8.1738e-05 0)
(0.105772 -8.70949e-05 0)
(0.106519 -9.23724e-05 0)
(0.107293 -9.75806e-05 0)
(0.108094 -0.000102728 0)
(0.108918 -0.00010782 0)
(0.109766 -0.000112862 0)
(0.110634 -0.000117857 0)
(0.111521 -0.000122807 0)
(0.112427 -0.000127714 0)
(0.113349 -0.000132578 0)
(0.114287 -0.000137398 0)
(0.115239 -0.000142173 0)
(0.116204 -0.000146901 0)
(0.11718 -0.000151579 0)
(0.118168 -0.000156202 0)
(0.119164 -0.000160768 0)
(0.120169 -0.000165272 0)
(0.121181 -0.000169706 0)
(0.122199 -0.000174067 0)
(0.123222 -0.000178346 0)
(0.124249 -0.000182536 0)
(0.12528 -0.000186628 0)
(0.126312 -0.000190613 0)
(0.127344 -0.000194482 0)
(0.128377 -0.000198222 0)
(0.129409 -0.000201822 0)
(0.130438 -0.000205268 0)
(0.131463 -0.000208545 0)
(0.132484 -0.000211636 0)
(0.1335 -0.000214523 0)
(0.134509 -0.000217186 0)
(0.13551 -0.000219602 0)
(0.136501 -0.000221747 0)
(0.137483 -0.000223591 0)
(0.138453 -0.000225103 0)
(0.13941 -0.000226248 0)
(0.140352 -0.000226983 0)
(0.141279 -0.000227264 0)
(0.142188 -0.000227035 0)
(0.143078 -0.000226238 0)
(0.143947 -0.0002248 0)
(0.144793 -0.000222639 0)
(0.145614 -0.00021966 0)
(0.146408 -0.000215748 0)
(0.147172 -0.00021077 0)
(0.147902 -0.000204566 0)
(0.148596 -0.000196943 0)
(0.14925 -0.000187669 0)
(0.14986 -0.000176458 0)
(0.15042 -0.000162959 0)
(0.150925 -0.000146733 0)
(0.151368 -0.000127227 0)
(0.151741 -0.000103736 0)
(0.152033 -7.53463e-05 0)
(0.152233 -4.08523e-05 0)
(0.152326 1.36295e-06 0)
(0.152292 5.34023e-05 0)
(0.152107 0.000118466 0)
(0.151739 0.000200992 0)
(0.151145 0.000307505 0)
(0.150266 0.000447918 0)
(0.149018 0.000637756 0)
(0.14728 0.00090218 0)
(0.14487 0.00128339 0)
(0.141507 0.00185479 0)
(0.136723 0.00275183 0)
(0.129739 0.00426647 0)
(0.119482 0.00725546 0)
(0.107709 0.0157388 0)
(0.100033 -3.0539e-05 0)
(0.100179 -5.66895e-05 0)
(0.100416 -8.08745e-05 0)
(0.100722 -0.000103179 0)
(0.101092 -0.000124158 0)
(0.10152 -0.000144113 0)
(0.102 -0.000163239 0)
(0.102527 -0.00018169 0)
(0.103098 -0.000199587 0)
(0.10371 -0.000217021 0)
(0.104359 -0.000234064 0)
(0.105042 -0.000250777 0)
(0.105758 -0.000267208 0)
(0.106503 -0.000283394 0)
(0.107277 -0.000299367 0)
(0.108076 -0.000315151 0)
(0.1089 -0.000330766 0)
(0.109746 -0.000346226 0)
(0.110612 -0.000361541 0)
(0.111499 -0.000376719 0)
(0.112403 -0.000391763 0)
(0.113324 -0.000406673 0)
(0.11426 -0.000421449 0)
(0.11521 -0.000436085 0)
(0.116174 -0.000450575 0)
(0.117149 -0.00046491 0)
(0.118134 -0.00047908 0)
(0.119129 -0.000493071 0)
(0.120132 -0.000506869 0)
(0.121142 -0.000520456 0)
(0.122158 -0.000533814 0)
(0.123179 -0.000546922 0)
(0.124204 -0.000559755 0)
(0.125232 -0.000572289 0)
(0.126262 -0.000584494 0)
(0.127293 -0.00059634 0)
(0.128323 -0.000607792 0)
(0.129352 -0.000618813 0)
(0.130379 -0.00062936 0)
(0.131402 -0.000639388 0)
(0.132421 -0.000648847 0)
(0.133434 -0.00065768 0)
(0.13444 -0.000665826 0)
(0.135439 -0.000673215 0)
(0.136428 -0.000679771 0)
(0.137406 -0.000685407 0)
(0.138374 -0.000690025 0)
(0.139328 -0.000693516 0)
(0.140267 -0.000695756 0)
(0.141191 -0.000696602 0)
(0.142098 -0.000695891 0)
(0.142985 -0.000693439 0)
(0.143851 -0.000689028 0)
(0.144695 -0.000682407 0)
(0.145513 -0.000673285 0)
(0.146305 -0.000661315 0)
(0.147066 -0.000646091 0)
(0.147794 -0.000627125 0)
(0.148487 -0.000603835 0)
(0.14914 -0.000575513 0)
(0.149748 -0.000541296 0)
(0.150309 -0.000500123 0)
(0.150815 -0.000450669 0)
(0.15126 -0.000391271 0)
(0.151636 -0.000319808 0)
(0.151934 -0.000233546 0)
(0.152143 -0.000128907 0)
(0.152248 -1.12959e-06 0)
(0.152233 0.000156142 0)
(0.152075 0.000351994 0)
(0.151746 0.000599173 0)
(0.15121 0.000916152 0)
(0.150419 0.00133043 0)
(0.149308 0.00188405 0)
(0.147789 0.00264293 0)
(0.145744 0.00371291 0)
(0.143012 0.00526651 0)
(0.139372 0.00758711 0)
(0.134557 0.0111435 0)
(0.128581 0.0166221 0)
(0.123691 0.0243708 0)
(0.10003 -5.19058e-05 0)
(0.100175 -9.72355e-05 0)
(0.100409 -0.00013889 0)
(0.100714 -0.000177293 0)
(0.101082 -0.000213406 0)
(0.101507 -0.000247749 0)
(0.101985 -0.00028066 0)
(0.102511 -0.000312408 0)
(0.10308 -0.000343198 0)
(0.103689 -0.000373188 0)
(0.104336 -0.000402505 0)
(0.105017 -0.000431252 0)
(0.105731 -0.00045951 0)
(0.106474 -0.000487346 0)
(0.107245 -0.000514813 0)
(0.108042 -0.000541954 0)
(0.108863 -0.000568801 0)
(0.109706 -0.00059538 0)
(0.11057 -0.000621708 0)
(0.111454 -0.000647797 0)
(0.112355 -0.000673655 0)
(0.113273 -0.000699281 0)
(0.114206 -0.000724672 0)
(0.115153 -0.000749822 0)
(0.116113 -0.000774719 0)
(0.117085 -0.000799347 0)
(0.118066 -0.000823688 0)
(0.119058 -0.000847719 0)
(0.120057 -0.000871416 0)
(0.121063 -0.000894749 0)
(0.122075 -0.000917684 0)
(0.123093 -0.000940186 0)
(0.124114 -0.000962214 0)
(0.125137 -0.000983725 0)
(0.126163 -0.00100467 0)
(0.127189 -0.00102499 0)
(0.128215 -0.00104463 0)
(0.129239 -0.00106353 0)
(0.130261 -0.00108161 0)
(0.131279 -0.00109879 0)
(0.132293 -0.001115 0)
(0.133301 -0.00113012 0)
(0.134302 -0.00114407 0)
(0.135295 -0.00115671 0)
(0.136279 -0.00116791 0)
(0.137252 -0.00117754 0)
(0.138213 -0.00118541 0)
(0.139162 -0.00119135 0)
(0.140096 -0.00119514 0)
(0.141014 -0.00119654 0)
(0.141915 -0.00119528 0)
(0.142797 -0.00119103 0)
(0.143657 -0.00118342 0)
(0.144495 -0.00117204 0)
(0.145308 -0.00115639 0)
(0.146095 -0.00113587 0)
(0.146851 -0.00110982 0)
(0.147575 -0.0010774 0)
(0.148264 -0.00103763 0)
(0.148913 -0.000989337 0)
(0.14952 -0.000931076 0)
(0.150079 -0.000861079 0)
(0.150586 -0.000777156 0)
(0.151034 -0.000676568 0)
(0.151416 -0.000555846 0)
(0.151724 -0.000410551 0)
(0.151947 -0.000234933 0)
(0.152075 -2.14417e-05 0)
(0.152091 0.000240031 0)
(0.151979 0.000563258 0)
(0.151717 0.000967375 0)
(0.151279 0.00147934 0)
(0.150632 0.00213782 0)
(0.149739 0.00299919 0)
(0.148555 0.00414678 0)
(0.147037 0.0057043 0)
(0.145151 0.00785363 0)
(0.142902 0.0108523 0)
(0.1404 0.0150351 0)
(0.138064 0.0206848 0)
(0.137135 0.0272661 0)
(0.100028 -7.39155e-05 0)
(0.100169 -0.000140013 0)
(0.100401 -0.000200341 0)
(0.100702 -0.000255992 0)
(0.101067 -0.000308301 0)
(0.10149 -0.000358028 0)
(0.101965 -0.000405673 0)
(0.102487 -0.000451626 0)
(0.103053 -0.000496184 0)
(0.103659 -0.000539581 0)
(0.104303 -0.000581998 0)
(0.104981 -0.000623584 0)
(0.105691 -0.000664458 0)
(0.10643 -0.000704718 0)
(0.107198 -0.00074444 0)
(0.107991 -0.000783684 0)
(0.108808 -0.000822501 0)
(0.109647 -0.000860924 0)
(0.110507 -0.000898981 0)
(0.111386 -0.000936689 0)
(0.112283 -0.000974055 0)
(0.113196 -0.00101108 0)
(0.114124 -0.00104777 0)
(0.115067 -0.0010841 0)
(0.116021 -0.00112006 0)
(0.116988 -0.00115562 0)
(0.117964 -0.00119077 0)
(0.11895 -0.00122546 0)
(0.119943 -0.00125966 0)
(0.120944 -0.00129333 0)
(0.12195 -0.00132642 0)
(0.122961 -0.00135888 0)
(0.123976 -0.00139065 0)
(0.124993 -0.00142166 0)
(0.126012 -0.00145184 0)
(0.127031 -0.00148112 0)
(0.12805 -0.00150942 0)
(0.129067 -0.00153662 0)
(0.130082 -0.00156265 0)
(0.131093 -0.00158737 0)
(0.132099 -0.00161067 0)
(0.133099 -0.00163241 0)
(0.134092 -0.00165243 0)
(0.135077 -0.00167056 0)
(0.136052 -0.00168662 0)
(0.137017 -0.00170039 0)
(0.137971 -0.00171164 0)
(0.138911 -0.00172009 0)
(0.139836 -0.00172544 0)
(0.140746 -0.00172735 0)
(0.141638 -0.00172541 0)
(0.142512 -0.00171919 0)
(0.143364 -0.00170816 0)
(0.144194 -0.00169171 0)
(0.144999 -0.00166915 0)
(0.145778 -0.00163965 0)
(0.146528 -0.00160224 0)
(0.147245 -0.00155579 0)
(0.147929 -0.00149891 0)
(0.148574 -0.00142997 0)
(0.149178 -0.00134698 0)
(0.149737 -0.0012475 0)
(0.150245 -0.00112856 0)
(0.150698 -0.000986445 0)
(0.151089 -0.000816501 0)
(0.151412 -0.000612841 0)
(0.151658 -0.000367937 0)
(0.151818 -7.2058e-05 0)
(0.151881 0.000287465 0)
(0.151836 0.000727471 0)
(0.151667 0.00127065 0)
(0.151362 0.00194774 0)
(0.150904 0.0028007 0)
(0.150283 0.00388708 0)
(0.149494 0.00528553 0)
(0.14855 0.0071017 0)
(0.147498 0.00947124 0)
(0.146448 0.0125503 0)
(0.145618 0.0164703 0)
(0.145386 0.0211856 0)
(0.146293 0.0260426 0)
(0.100025 -9.65733e-05 0)
(0.100164 -0.000184939 0)
(0.100391 -0.000265186 0)
(0.100688 -0.000339292 0)
(0.101049 -0.000408921 0)
(0.101468 -0.00047509 0)
(0.101938 -0.00053847 0)
(0.102456 -0.000599586 0)
(0.103018 -0.000658836 0)
(0.10362 -0.000716529 0)
(0.104259 -0.00077291 0)
(0.104932 -0.000828178 0)
(0.105637 -0.000882491 0)
(0.106372 -0.000935979 0)
(0.107134 -0.000988743 0)
(0.107922 -0.00104087 0)
(0.108734 -0.00109241 0)
(0.109567 -0.00114343 0)
(0.110421 -0.00119395 0)
(0.111294 -0.001244 0)
(0.112185 -0.00129358 0)
(0.113092 -0.00134271 0)
(0.114014 -0.00139138 0)
(0.11495 -0.00143956 0)
(0.115898 -0.00148724 0)
(0.116857 -0.00153439 0)
(0.117826 -0.00158098 0)
(0.118804 -0.00162695 0)
(0.11979 -0.00167226 0)
(0.120782 -0.00171686 0)
(0.12178 -0.00176068 0)
(0.122783 -0.00180364 0)
(0.123789 -0.00184568 0)
(0.124798 -0.0018867 0)
(0.125808 -0.00192662 0)
(0.126818 -0.00196532 0)
(0.127827 -0.0020027 0)
(0.128835 -0.00203863 0)
(0.12984 -0.00207298 0)
(0.13084 -0.00210559 0)
(0.131836 -0.0021363 0)
(0.132826 -0.00216493 0)
(0.133809 -0.00219127 0)
(0.134783 -0.0022151 0)
(0.135748 -0.00223618 0)
(0.136702 -0.00225422 0)
(0.137644 -0.00226891 0)
(0.138573 -0.0022799 0)
(0.139488 -0.00228679 0)
(0.140386 -0.00228913 0)
(0.141268 -0.0022864 0)
(0.14213 -0.00227804 0)
(0.142972 -0.00226334 0)
(0.143792 -0.00224155 0)
(0.144587 -0.00221176 0)
(0.145357 -0.00217291 0)
(0.146098 -0.00212378 0)
(0.146808 -0.0020629 0)
(0.147485 -0.00198855 0)
(0.148126 -0.00189867 0)
(0.148727 -0.00179079 0)
(0.149285 -0.00166189 0)
(0.149797 -0.00150833 0)
(0.150258 -0.00132562 0)
(0.150663 -0.0011082 0)
(0.151007 -0.000849143 0)
(0.151284 -0.000539744 0)
(0.151488 -0.000168998 0)
(0.151612 0.000277001 0)
(0.15165 0.000816047 0)
(0.151597 0.00147124 0)
(0.151449 0.00227241 0)
(0.151206 0.00325791 0)
(0.150878 0.00447656 0)
(0.150485 0.00598915 0)
(0.15007 0.00786789 0)
(0.149712 0.0101905 0)
(0.149537 0.0130215 0)
(0.149735 0.0163662 0)
(0.150549 0.0200742 0)
(0.152194 0.0236719 0)
(0.100022 -0.000119887 0)
(0.100158 -0.000231933 0)
(0.10038 -0.000333372 0)
(0.100672 -0.000427178 0)
(0.101028 -0.000515308 0)
(0.101441 -0.000599027 0)
(0.101907 -0.000679197 0)
(0.10242 -0.000756483 0)
(0.102976 -0.00083139 0)
(0.103572 -0.000904312 0)
(0.104205 -0.000975561 0)
(0.104872 -0.00104539 0)
(0.105571 -0.00111399 0)
(0.1063 -0.00118154 0)
(0.107055 -0.00124817 0)
(0.107836 -0.00131397 0)
(0.108641 -0.00137902 0)
(0.109467 -0.0014434 0)
(0.110314 -0.00150714 0)
(0.11118 -0.00157027 0)
(0.112063 -0.0016328 0)
(0.112962 -0.00169474 0)
(0.113875 -0.00175608 0)
(0.114802 -0.0018168 0)
(0.115741 -0.00187687 0)
(0.116691 -0.00193626 0)
(0.117651 -0.00199491 0)
(0.11862 -0.00205278 0)
(0.119596 -0.00210981 0)
(0.120578 -0.00216591 0)
(0.121566 -0.00222101 0)
(0.122558 -0.00227502 0)
(0.123554 -0.00232784 0)
(0.124551 -0.00237936 0)
(0.12555 -0.00242948 0)
(0.126548 -0.00247804 0)
(0.127546 -0.00252492 0)
(0.128541 -0.00256995 0)
(0.129534 -0.00261297 0)
(0.130522 -0.00265379 0)
(0.131506 -0.00269219 0)
(0.132483 -0.00272796 0)
(0.133452 -0.00276084 0)
(0.134413 -0.00279054 0)
(0.135365 -0.00281676 0)
(0.136305 -0.00283916 0)
(0.137234 -0.00285734 0)
(0.13815 -0.00287087 0)
(0.139051 -0.00287926 0)
(0.139936 -0.00288195 0)
(0.140804 -0.00287832 0)
(0.141653 -0.00286765 0)
(0.142483 -0.00284912 0)
(0.14329 -0.00282178 0)
(0.144074 -0.00278455 0)
(0.144833 -0.00273616 0)
(0.145564 -0.00267513 0)
(0.146266 -0.00259975 0)
(0.146936 -0.00250797 0)
(0.147572 -0.00239739 0)
(0.148171 -0.00226514 0)
(0.148732 -0.00210779 0)
(0.149249 -0.0019212 0)
(0.149721 -0.00170036 0)
(0.150144 -0.0014392 0)
(0.150516 -0.00113026 0)
(0.150831 -0.000764396 0)
(0.151088 -0.000330364 0)
(0.151285 0.000185629 0)
(0.15142 0.000800274 0)
(0.151495 0.00153436 0)
(0.151514 0.00241323 0)
(0.15149 0.00346726 0)
(0.151442 0.0047318 0)
(0.151403 0.00624603 0)
(0.151426 0.0080494 0)
(0.151586 0.0101735 0)
(0.151987 0.0126262 0)
(0.152759 0.0153623 0)
(0.154035 0.0182385 0)
(0.155888 0.020962 0)
(0.100019 -0.000143865 0)
(0.100152 -0.000280931 0)
(0.100369 -0.000404846 0)
(0.100655 -0.000519617 0)
(0.101005 -0.000627465 0)
(0.101412 -0.000729891 0)
(0.101871 -0.000827951 0)
(0.102377 -0.000922458 0)
(0.102927 -0.00101403 0)
(0.103516 -0.00110316 0)
(0.104142 -0.00119021 0)
(0.104802 -0.00127551 0)
(0.105493 -0.00135929 0)
(0.106214 -0.00144177 0)
(0.106961 -0.00152309 0)
(0.107734 -0.00160339 0)
(0.10853 -0.00168276 0)
(0.109348 -0.00176128 0)
(0.110185 -0.001839 0)
(0.111042 -0.00191596 0)
(0.111915 -0.00199218 0)
(0.112804 -0.00206764 0)
(0.113707 -0.00214236 0)
(0.114624 -0.0022163 0)
(0.115552 -0.00228943 0)
(0.116491 -0.0023617 0)
(0.11744 -0.00243306 0)
(0.118397 -0.00250343 0)
(0.119361 -0.00257275 0)
(0.120331 -0.00264092 0)
(0.121307 -0.00270785 0)
(0.122286 -0.00277342 0)
(0.123268 -0.00283752 0)
(0.124253 -0.00290002 0)
(0.125238 -0.00296077 0)
(0.126222 -0.00301961 0)
(0.127206 -0.00307637 0)
(0.128187 -0.00313086 0)
(0.129165 -0.00318287 0)
(0.130138 -0.00323217 0)
(0.131107 -0.00327852 0)
(0.132068 -0.00332164 0)
(0.133022 -0.00336122 0)
(0.133968 -0.00339693 0)
(0.134903 -0.0034284 0)
(0.135828 -0.00345522 0)
(0.136741 -0.00347692 0)
(0.137641 -0.00349298 0)
(0.138526 -0.00350283 0)
(0.139396 -0.00350581 0)
(0.140249 -0.00350118 0)
(0.141083 -0.00348811 0)
(0.141898 -0.00346564 0)
(0.142691 -0.00343267 0)
(0.143462 -0.00338796 0)
(0.144209 -0.00333006 0)
(0.14493 -0.00325729 0)
(0.145623 -0.00316772 0)
(0.146286 -0.00305907 0)
(0.146918 -0.00292868 0)
(0.147517 -0.00277344 0)
(0.14808 -0.00258964 0)
(0.148606 -0.00237291 0)
(0.149093 -0.00211807 0)
(0.149539 -0.0018189 0)
(0.149943 -0.00146802 0)
(0.150303 -0.0010566 0)
(0.15062 -0.000574132 0)
(0.150896 -8.16767e-06 0)
(0.151133 0.000655522 0)
(0.151338 0.00143347 0)
(0.151521 0.00234466 0)
(0.1517 0.00340994 0)
(0.151898 0.00465091 0)
(0.15215 0.00608772 0)
(0.152503 0.00773521 0)
(0.153017 0.00959634 0)
(0.153765 0.0116521 0)
(0.154823 0.0138474 0)
(0.156257 0.0160744 0)
(0.15808 0.0181633 0)
(0.100016 -0.000168531 0)
(0.100146 -0.000331889 0)
(0.100357 -0.000479563 0)
(0.100637 -0.000616566 0)
(0.10098 -0.000745375 0)
(0.10138 -0.000867698 0)
(0.101831 -0.000984788 0)
(0.10233 -0.00109761 0)
(0.102871 -0.00120689 0)
(0.103452 -0.00131323 0)
(0.104069 -0.00141706 0)
(0.104721 -0.00151877 0)
(0.105403 -0.00161865 0)
(0.106114 -0.00171693 0)
(0.106852 -0.00181382 0)
(0.107615 -0.00190945 0)
(0.108401 -0.00200396 0)
(0.109208 -0.00209742 0)
(0.110035 -0.00218991 0)
(0.11088 -0.00228146 0)
(0.111742 -0.00237209 0)
(0.11262 -0.00246181 0)
(0.113511 -0.00255061 0)
(0.114415 -0.00263845 0)
(0.115331 -0.00272529 0)
(0.116257 -0.00281109 0)
(0.117192 -0.00289576 0)
(0.118136 -0.00297924 0)
(0.119086 -0.00306142 0)
(0.120042 -0.00314221 0)
(0.121003 -0.00322149 0)
(0.121967 -0.00329912 0)
(0.122934 -0.00337498 0)
(0.123903 -0.00344888 0)
(0.124872 -0.00352068 0)
(0.12584 -0.00359017 0)
(0.126807 -0.00365716 0)
(0.127772 -0.00372142 0)
(0.128733 -0.0037827 0)
(0.129689 -0.00384074 0)
(0.130639 -0.00389525 0)
(0.131583 -0.0039459 0)
(0.13252 -0.00399233 0)
(0.133447 -0.00403417 0)
(0.134365 -0.00407096 0)
(0.135272 -0.00410224 0)
(0.136167 -0.00412748 0)
(0.137048 -0.00414607 0)
(0.137916 -0.00415736 0)
(0.138768 -0.0041606 0)
(0.139604 -0.00415496 0)
(0.140422 -0.00413948 0)
(0.14122 -0.0041131 0)
(0.141999 -0.0040746 0)
(0.142756 -0.00402261 0)
(0.14349 -0.00395552 0)
(0.1442 -0.00387154 0)
(0.144884 -0.00376857 0)
(0.145541 -0.0036442 0)
(0.14617 -0.00349564 0)
(0.146769 -0.00331968 0)
(0.147337 -0.00311256 0)
(0.147874 -0.00286994 0)
(0.148379 -0.00258675 0)
(0.14885 -0.00225711 0)
(0.14929 -0.00187422 0)
(0.149699 -0.00143023 0)
(0.150079 -0.000916156 0)
(0.150434 -0.00032181 0)
(0.150772 0.000364079 0)
(0.1511 0.00115285 0)
(0.151431 0.00205686 0)
(0.151784 0.00308808 0)
(0.152182 0.00425675 0)
(0.152655 0.00556929 0)
(0.153239 0.00702536 0)
(0.153976 0.00861372 0)
(0.154911 0.0103073 0)
(0.156086 0.0120576 0)
(0.157526 0.0137912 0)
(0.159227 0.015412 0)
(0.100013 -0.000193917 0)
(0.10014 -0.000384774 0)
(0.100345 -0.000557482 0)
(0.100618 -0.000717979 0)
(0.100954 -0.000869002 0)
(0.101345 -0.00101244 0)
(0.101788 -0.00114972 0)
(0.102278 -0.00128197 0)
(0.10281 -0.00141005 0)
(0.103381 -0.00153462 0)
(0.103989 -0.00165624 0)
(0.10463 -0.00177532 0)
(0.105302 -0.00189223 0)
(0.106002 -0.00200723 0)
(0.106729 -0.00212056 0)
(0.10748 -0.00223239 0)
(0.108255 -0.00234286 0)
(0.10905 -0.00245208 0)
(0.109864 -0.00256012 0)
(0.110696 -0.00266702 0)
(0.111545 -0.00277281 0)
(0.112409 -0.0028775 0)
(0.113287 -0.00298107 0)
(0.114176 -0.00308348 0)
(0.115078 -0.00318469 0)
(0.115989 -0.00328464 0)
(0.116909 -0.00338324 0)
(0.117836 -0.00348039 0)
(0.11877 -0.003576 0)
(0.11971 -0.00366993 0)
(0.120654 -0.00376205 0)
(0.121601 -0.00385222 0)
(0.122551 -0.00394025 0)
(0.123501 -0.00402598 0)
(0.124452 -0.0041092 0)
(0.125402 -0.00418969 0)
(0.126351 -0.00426722 0)
(0.127296 -0.00434153 0)
(0.128238 -0.00441233 0)
(0.129174 -0.00447933 0)
(0.130105 -0.00454217 0)
(0.131029 -0.0046005 0)
(0.131946 -0.0046539 0)
(0.132853 -0.00470194 0)
(0.133751 -0.00474413 0)
(0.134637 -0.00477993 0)
(0.135512 -0.00480873 0)
(0.136374 -0.00482988 0)
(0.137222 -0.00484263 0)
(0.138055 -0.00484618 0)
(0.138872 -0.00483958 0)
(0.139672 -0.00482183 0)
(0.140454 -0.00479175 0)
(0.141216 -0.00474805 0)
(0.141958 -0.00468924 0)
(0.142679 -0.00461366 0)
(0.143378 -0.00451943 0)
(0.144053 -0.0044044 0)
(0.144704 -0.00426612 0)
(0.14533 -0.00410182 0)
(0.145931 -0.00390834 0)
(0.146506 -0.00368209 0)
(0.147056 -0.00341898 0)
(0.14758 -0.00311442 0)
(0.148079 -0.0027632 0)
(0.148556 -0.00235952 0)
(0.149013 -0.00189696 0)
(0.149454 -0.00136853 0)
(0.149886 -0.000766743 0)
(0.150314 -8.37409e-05 0)
(0.150751 0.000687808 0)
(0.151208 0.00155381 0)
(0.151701 0.00251929 0)
(0.15225 0.00358654 0)
(0.152878 0.00475363 0)
(0.15361 0.00601262 0)
(0.154473 0.00734752 0)
(0.155493 0.00873238 0)
(0.156689 0.01013 0)
(0.158068 0.0114927 0)
(0.15962 0.012766 0)
(0.10001 -0.000220057 0)
(0.100134 -0.000439567 0)
(0.100334 -0.000638571 0)
(0.100599 -0.000823809 0)
(0.100926 -0.000998296 0)
(0.101309 -0.00116407 0)
(0.101742 -0.00132273 0)
(0.102222 -0.00147554 0)
(0.102744 -0.00162351 0)
(0.103304 -0.00176739 0)
(0.103901 -0.0019078 0)
(0.10453 -0.00204525 0)
(0.10519 -0.00218013 0)
(0.105878 -0.00231278 0)
(0.106592 -0.00244344 0)
(0.107331 -0.00257233 0)
(0.108091 -0.00269961 0)
(0.108873 -0.00282538 0)
(0.109673 -0.00294976 0)
(0.110491 -0.00307277 0)
(0.111324 -0.00319446 0)
(0.112173 -0.00331483 0)
(0.113034 -0.00343386 0)
(0.113908 -0.00355151 0)
(0.114793 -0.00366772 0)
(0.115687 -0.00378243 0)
(0.116589 -0.00389552 0)
(0.117499 -0.00400691 0)
(0.118415 -0.00411646 0)
(0.119336 -0.00422403 0)
(0.120261 -0.00432947 0)
(0.121189 -0.0044326 0)
(0.122119 -0.00453322 0)
(0.123049 -0.00463114 0)
(0.12398 -0.00472612 0)
(0.124909 -0.00481792 0)
(0.125837 -0.00490627 0)
(0.126761 -0.00499087 0)
(0.127681 -0.0050714 0)
(0.128596 -0.00514753 0)
(0.129505 -0.00521886 0)
(0.130407 -0.00528499 0)
(0.131302 -0.00534546 0)
(0.132187 -0.00539979 0)
(0.133062 -0.00544744 0)
(0.133927 -0.0054878 0)
(0.13478 -0.00552023 0)
(0.135621 -0.005544 0)
(0.136447 -0.00555832 0)
(0.13726 -0.00556231 0)
(0.138057 -0.00555498 0)
(0.138837 -0.00553524 0)
(0.139601 -0.00550189 0)
(0.140346 -0.00545356 0)
(0.141073 -0.00538876 0)
(0.14178 -0.00530578 0)
(0.142468 -0.00520275 0)
(0.143134 -0.00507756 0)
(0.14378 -0.00492783 0)
(0.144404 -0.00475095 0)
(0.145008 -0.00454399 0)
(0.14559 -0.00430368 0)
(0.146153 -0.00402645 0)
(0.146697 -0.00370837 0)
(0.147224 -0.00334518 0)
(0.147737 -0.00293234 0)
(0.148239 -0.00246507 0)
(0.148737 -0.00193852 0)
(0.149235 -0.00134788 0)
(0.149741 -0.000688612 0)
(0.150267 4.34074e-05 0)
(0.150821 0.000850048 0)
(0.151419 0.00173083 0)
(0.152073 0.00268332 0)
(0.152801 0.00370151 0)
(0.153618 0.00477487 0)
(0.154541 0.00588765 0)
(0.155581 0.00701851 0)
(0.156747 0.00814081 0)
(0.158039 0.00922408 0)
(0.159445 0.0102374 0)
(0.100007 -0.000246985 0)
(0.100128 -0.000496251 0)
(0.100322 -0.000722791 0)
(0.10058 -0.000934002 0)
(0.100898 -0.00113319 0)
(0.101271 -0.00132251 0)
(0.101694 -0.00150374 0)
(0.102162 -0.00167827 0)
(0.102673 -0.00184723 0)
(0.103221 -0.00201148 0)
(0.103805 -0.00217172 0)
(0.104422 -0.00232853 0)
(0.105069 -0.00248235 0)
(0.105743 -0.00263357 0)
(0.106443 -0.00278246 0)
(0.107166 -0.00292928 0)
(0.107912 -0.00307419 0)
(0.108678 -0.00321734 0)
(0.109462 -0.00335883 0)
(0.110263 -0.00349871 0)
(0.11108 -0.00363702 0)
(0.111911 -0.00377377 0)
(0.112755 -0.00390892 0)
(0.113611 -0.00404245 0)
(0.114477 -0.00417428 0)
(0.115352 -0.00430432 0)
(0.116235 -0.00443247 0)
(0.117125 -0.00455861 0)
(0.11802 -0.0046826 0)
(0.118921 -0.00480427 0)
(0.119825 -0.00492345 0)
(0.120731 -0.00503993 0)
(0.121639 -0.00515352 0)
(0.122548 -0.00526396 0)
(0.123456 -0.00537101 0)
(0.124363 -0.00547438 0)
(0.125267 -0.00557378 0)
(0.126168 -0.00566887 0)
(0.127064 -0.00575931 0)
(0.127956 -0.00584471 0)
(0.128841 -0.00592466 0)
(0.129719 -0.0059987 0)
(0.130589 -0.00606633 0)
(0.13145 -0.00612703 0)
(0.132302 -0.00618021 0)
(0.133143 -0.00622523 0)
(0.133972 -0.0062614 0)
(0.13479 -0.00628794 0)
(0.135594 -0.00630401 0)
(0.136384 -0.00630871 0)
(0.13716 -0.006301 0)
(0.137921 -0.00627979 0)
(0.138665 -0.00624383 0)
(0.139393 -0.00619178 0)
(0.140104 -0.00612215 0)
(0.140798 -0.00603328 0)
(0.141474 -0.00592338 0)
(0.142132 -0.00579047 0)
(0.142772 -0.00563237 0)
(0.143395 -0.00544671 0)
(0.144001 -0.00523094 0)
(0.14459 -0.00498229 0)
(0.145166 -0.00469781 0)
(0.145728 -0.00437443 0)
(0.146281 -0.00400893 0)
(0.146826 -0.0035981 0)
(0.147369 -0.0031388 0)
(0.147913 -0.00262816 0)
(0.148466 -0.0020637 0)
(0.149034 -0.00144362 0)
(0.149626 -0.000766897 0)
(0.15025 -3.33852e-05 0)
(0.150918 0.000754322 0)
(0.151639 0.00159013 0)
(0.152423 0.00246675 0)
(0.153279 0.00337392 0)
(0.154216 0.00429829 0)
(0.15524 0.00522363 0)
(0.156351 0.00613152 0)
(0.157548 0.00700268 0)
(0.15882 0.0078192 0)
(0.100003 -0.000274725 0)
(0.100122 -0.000554806 0)
(0.10031 -0.000810096 0)
(0.10056 -0.00104849 0)
(0.100868 -0.00127359 0)
(0.101231 -0.00148768 0)
(0.101643 -0.00169264 0)
(0.1021 -0.00189004 0)
(0.102598 -0.00208109 0)
(0.103133 -0.00226679 0)
(0.103704 -0.00244789 0)
(0.104306 -0.00262505 0)
(0.104938 -0.00279877 0)
(0.105597 -0.00296948 0)
(0.106281 -0.0031375 0)
(0.106988 -0.00330309 0)
(0.107717 -0.00346648 0)
(0.108465 -0.0036278 0)
(0.109232 -0.00378716 0)
(0.110015 -0.00394465 0)
(0.110813 -0.00410029 0)
(0.111625 -0.00425408 0)
(0.112449 -0.00440601 0)
(0.113285 -0.00455602 0)
(0.11413 -0.00470405 0)
(0.114984 -0.00484998 0)
(0.115846 -0.0049937 0)
(0.116714 -0.00513508 0)
(0.117587 -0.00527396 0)
(0.118465 -0.00541015 0)
(0.119346 -0.00554345 0)
(0.120228 -0.00567365 0)
(0.121113 -0.00580051 0)
(0.121997 -0.00592376 0)
(0.12288 -0.00604313 0)
(0.123762 -0.0061583 0)
(0.124641 -0.00626895 0)
(0.125517 -0.00637471 0)
(0.126388 -0.0064752 0)
(0.127253 -0.00657 0)
(0.128113 -0.00665867 0)
(0.128965 -0.00674071 0)
(0.129809 -0.00681559 0)
(0.130645 -0.00688276 0)
(0.131471 -0.00694158 0)
(0.132286 -0.00699139 0)
(0.133091 -0.00703146 0)
(0.133884 -0.007061 0)
(0.134664 -0.00707915 0)
(0.135431 -0.00708497 0)
(0.136185 -0.00707745 0)
(0.136925 -0.00705549 0)
(0.137649 -0.00701787 0)
(0.138359 -0.0069633 0)
(0.139054 -0.00689036 0)
(0.139734 -0.00679751 0)
(0.140398 -0.00668311 0)
(0.141047 -0.00654539 0)
(0.141682 -0.00638245 0)
(0.142302 -0.00619229 0)
(0.14291 -0.0059728 0)
(0.143506 -0.00572179 0)
(0.144092 -0.00543706 0)
(0.144671 -0.00511637 0)
(0.145244 -0.0047576 0)
(0.145816 -0.00435876 0)
(0.146391 -0.00391818 0)
(0.146972 -0.00343459 0)
(0.147566 -0.00290733 0)
(0.148178 -0.0023365 0)
(0.148815 -0.00172317 0)
(0.149483 -0.00106942 0)
(0.150191 -0.000378261 0)
(0.150945 0.000345817 0)
(0.151751 0.00109429 0)
(0.152614 0.00185743 0)
(0.153537 0.00262482 0)
(0.154522 0.00338476 0)
(0.155568 0.0041249 0)
(0.156671 0.00483308 0)
(0.157823 0.00549877 0)
(0.0999991 -0.000303291 0)
(0.100116 -0.000615205 0)
(0.100298 -0.00090042 0)
(0.100539 -0.00116717 0)
(0.100838 -0.00141938 0)
(0.10119 -0.00165941 0)
(0.101591 -0.00188927 0)
(0.102035 -0.00211066 0)
(0.102519 -0.00232491 0)
(0.10304 -0.0025331 0)
(0.103595 -0.00273609 0)
(0.104182 -0.00293458 0)
(0.104798 -0.00312915 0)
(0.10544 -0.00332026 0)
(0.106107 -0.00350828 0)
(0.106796 -0.0036935 0)
(0.107507 -0.00387616 0)
(0.108236 -0.00405642 0)
(0.108983 -0.00423441 0)
(0.109746 -0.0044102 0)
(0.110524 -0.00458384 0)
(0.111315 -0.00475533 0)
(0.112117 -0.00492464 0)
(0.112931 -0.00509172 0)
(0.113754 -0.00525647 0)
(0.114585 -0.0054188 0)
(0.115423 -0.00557858 0)
(0.116267 -0.00573563 0)
(0.117116 -0.0058898 0)
(0.117968 -0.00604088 0)
(0.118824 -0.00618865 0)
(0.119681 -0.00633287 0)
(0.120539 -0.00647327 0)
(0.121397 -0.00660958 0)
(0.122254 -0.00674147 0)
(0.123109 -0.00686863 0)
(0.123961 -0.00699068 0)
(0.124809 -0.00710724 0)
(0.125652 -0.00721789 0)
(0.12649 -0.0073222 0)
(0.127322 -0.00741968 0)
(0.128147 -0.00750981 0)
(0.128963 -0.00759205 0)
(0.129771 -0.0076658 0)
(0.13057 -0.00773041 0)
(0.131359 -0.00778521 0)
(0.132137 -0.00782945 0)
(0.132904 -0.00786233 0)
(0.13366 -0.007883 0)
(0.134403 -0.00789054 0)
(0.135133 -0.00788396 0)
(0.135851 -0.0078622 0)
(0.136556 -0.00782414 0)
(0.137247 -0.00776855 0)
(0.137925 -0.00769415 0)
(0.13859 -0.00759958 0)
(0.139242 -0.00748341 0)
(0.139881 -0.00734413 0)
(0.140509 -0.00718019 0)
(0.141126 -0.00699001 0)
(0.141734 -0.00677199 0)
(0.142334 -0.00652455 0)
(0.142928 -0.00624619 0)
(0.143518 -0.00593553 0)
(0.144108 -0.00559137 0)
(0.144699 -0.0052128 0)
(0.145296 -0.00479929 0)
(0.145903 -0.00435078 0)
(0.146524 -0.00386783 0)
(0.147163 -0.00335174 0)
(0.147825 -0.00280464 0)
(0.148516 -0.00222956 0)
(0.149239 -0.00163051 0)
(0.15 -0.00101228 0)
(0.150802 -0.000379902 0)
(0.151648 0.000259955 0)
(0.152539 0.000898645 0)
(0.153473 0.00152622 0)
(0.154449 0.00213449 0)
(0.155463 0.0027158 0)
(0.156509 0.00326396 0)
(0.099995 -0.000332684 0)
(0.10011 -0.000677404 0)
(0.100286 -0.000993671 0)
(0.100519 -0.00128993 0)
(0.100808 -0.00157038 0)
(0.101148 -0.0018375 0)
(0.101536 -0.00209339 0)
(0.101966 -0.00233987 0)
(0.102436 -0.00257838 0)
(0.102942 -0.00281009 0)
(0.103481 -0.00303596 0)
(0.104051 -0.00325675 0)
(0.104649 -0.00347309 0)
(0.105273 -0.00368548 0)
(0.105921 -0.00389435 0)
(0.106591 -0.00410001 0)
(0.107281 -0.00430272 0)
(0.10799 -0.00450267 0)
(0.108716 -0.00469998 0)
(0.109457 -0.00489476 0)
(0.110212 -0.00508703 0)
(0.11098 -0.00527681 0)
(0.111759 -0.00546407 0)
(0.112548 -0.00564873 0)
(0.113347 -0.00583072 0)
(0.114153 -0.0060099 0)
(0.114965 -0.00618614 0)
(0.115783 -0.00635927 0)
(0.116606 -0.00652908 0)
(0.117431 -0.00669536 0)
(0.11826 -0.00685788 0)
(0.119089 -0.00701637 0)
(0.119919 -0.00717054 0)
(0.120749 -0.00732008 0)
(0.121577 -0.00746467 0)
(0.122403 -0.00760394 0)
(0.123226 -0.00773751 0)
(0.124045 -0.00786497 0)
(0.124859 -0.00798588 0)
(0.125667 -0.00809977 0)
(0.126469 -0.00820615 0)
(0.127264 -0.00830448 0)
(0.128052 -0.00839419 0)
(0.128831 -0.00847468 0)
(0.129601 -0.00854529 0)
(0.130362 -0.00860534 0)
(0.131113 -0.00865411 0)
(0.131853 -0.0086908 0)
(0.132582 -0.00871459 0)
(0.1333 -0.00872461 0)
(0.134007 -0.00871992 0)
(0.134702 -0.00869956 0)
(0.135385 -0.00866249 0)
(0.136056 -0.00860765 0)
(0.136717 -0.0085339 0)
(0.137366 -0.00844012 0)
(0.138005 -0.00832511 0)
(0.138633 -0.0081877 0)
(0.139253 -0.0080267 0)
(0.139865 -0.00784097 0)
(0.140471 -0.0076294 0)
(0.141071 -0.00739102 0)
(0.141669 -0.00712495 0)
(0.142266 -0.00683055 0)
(0.142864 -0.0065074 0)
(0.143467 -0.0061554 0)
(0.144077 -0.00577484 0)
(0.144697 -0.00536647 0)
(0.145332 -0.00493158 0)
(0.145983 -0.00447204 0)
(0.146654 -0.00399038 0)
(0.147349 -0.0034898 0)
(0.14807 -0.00297415 0)
(0.14882 -0.00244793 0)
(0.149599 -0.00191612 0)
(0.150411 -0.00138397 0)
(0.151254 -0.000856643 0)
(0.152129 -0.000338613 0)
(0.153033 0.000164056 0)
(0.153962 0.000646028 0)
(0.154912 0.00110296 0)
(0.0999906 -0.000362884 0)
(0.100103 -0.000741334 0)
(0.100274 -0.00108972 0)
(0.100498 -0.00141657 0)
(0.100776 -0.00172637 0)
(0.101104 -0.00202167 0)
(0.101479 -0.00230467 0)
(0.101895 -0.00257729 0)
(0.102349 -0.00284109 0)
(0.102838 -0.00309733 0)
(0.10336 -0.00334703 0)
(0.103912 -0.00359103 0)
(0.104491 -0.00383002 0)
(0.105095 -0.00406455 0)
(0.105723 -0.00429507 0)
(0.106372 -0.00452194 0)
(0.10704 -0.00474543 0)
(0.107727 -0.00496575 0)
(0.108429 -0.00518305 0)
(0.109147 -0.00539742 0)
(0.109878 -0.00560891 0)
(0.110621 -0.00581753 0)
(0.111374 -0.00602323 0)
(0.112138 -0.00622596 0)
(0.112909 -0.0064256 0)
(0.113688 -0.00662204 0)
(0.114473 -0.0068151 0)
(0.115263 -0.00700461 0)
(0.116057 -0.00719035 0)
(0.116854 -0.0073721 0)
(0.117653 -0.00754958 0)
(0.118453 -0.00772253 0)
(0.119253 -0.00789062 0)
(0.120052 -0.00805354 0)
(0.120849 -0.00821093 0)