/*--------------------------------*- C++ -*----------------------------------*\
| =========                 |                                                 |
| \\      /  F ield         | OpenFOAM: The Open Source CFD Toolbox           |
|  \\    /   O peration     | Version:  2106                                  |
|   \\  /    A nd           | Website:  www.openfoam.com                      |
|    \\/     M anipulation  |                                                 |
\*---------------------------------------------------------------------------*/
FoamFile
{
    version     2.0;
    format      ascii;
    arch        "LSB;label=32;scalar=64";
    class       surfaceScalarField;
    location    "2.8";
    object      phi;
}
// * * * * * * * * * * * * * * * * * * * * * * * * * * * * * * * * * * * * * //

dimensions      [1 0 -1 0 0 0 0];

oriented        oriented;

internalField   nonuniform List<scalar> 
23692
(
9.31467e-05
-6.72279e-08
9.32684e-05
-1.21596e-07
9.34379e-05
-1.69289e-07
9.36486e-05
-2.10482e-07
9.38955e-05
-2.46655e-07
9.41746e-05
-2.78741e-07
9.44823e-05
-3.07368e-07
9.48158e-05
-3.33044e-07
9.51724e-05
-3.56149e-07
9.555e-05
-3.77e-07
9.59464e-05
-3.95832e-07
9.63599e-05
-4.1284e-07
9.67888e-05
-4.28183e-07
9.72315e-05
-4.4198e-07
9.76867e-05
-4.54338e-07
9.81528e-05
-4.65351e-07
9.86288e-05
-4.75105e-07
9.91134e-05
-4.83681e-07
9.96055e-05
-4.91174e-07
0.000100104
-4.97674e-07
0.000100608
-5.03282e-07
0.000101118
-5.081e-07
0.000101631
-5.12237e-07
0.000102148
-5.15793e-07
0.000102668
-5.18868e-07
0.00010319
-5.21553e-07
0.000103716
-5.2393e-07
0.000104243
-5.26062e-07
0.000104772
-5.28e-07
0.000105303
-5.29778e-07
0.000105836
-5.31414e-07
0.00010637
-5.3291e-07
0.000106905
-5.34255e-07
0.000107442
-5.35423e-07
0.000107979
-5.36378e-07
0.000108518
-5.37076e-07
0.000109056
-5.37463e-07
0.000109595
-5.37482e-07
0.000110133
-5.37072e-07
0.000110671
-5.36169e-07
0.000111207
-5.34701e-07
0.000111741
-5.32603e-07
0.000112272
-5.29801e-07
0.000112799
-5.26223e-07
0.000113322
-5.21796e-07
0.00011384
-5.1644e-07
0.000114351
-5.10074e-07
0.000114855
-5.02613e-07
0.00011535
-4.93964e-07
0.000115835
-4.84024e-07
0.000116309
-4.72683e-07
0.00011677
-4.59815e-07
0.000117216
-4.4528e-07
0.000117646
-4.28915e-07
0.000118057
-4.10533e-07
0.000118448
-3.89916e-07
0.000118816
-3.66806e-07
0.000119158
-3.40897e-07
0.000119471
-3.11826e-07
0.000119751
-2.79149e-07
0.000119994
-2.42331e-07
0.000120196
-2.0071e-07
0.00012035
-1.53467e-07
0.000120451
-9.95783e-08
0.00012049
-3.77449e-08
0.000120457
3.37087e-08
0.000120341
1.17017e-07
0.000120126
2.15157e-07
0.000119795
3.32152e-07
0.000119322
4.7356e-07
0.000118676
6.47239e-07
0.000117812
8.64563e-07
0.000116671
1.14241e-06
0.000115165
1.50651e-06
0.000113169
1.99707e-06
0.000110491
2.67859e-06
0.000106835
3.65636e-06
0.00010173
5.1063e-06
9.43872e-05
7.34327e-06
8.33956e-05
1.09923e-05
1.7785e-05
6.56114e-05
9.96694e-05
-1.37502e-07
9.9799e-05
-2.51054e-07
9.99798e-05
-3.4993e-07
0.000100205
-4.3517e-07
0.000100468
-5.10053e-07
0.000100766
-5.76462e-07
0.000101095
-6.35705e-07
0.000101451
-6.88821e-07
0.000101832
-7.3663e-07
0.000102236
-7.79755e-07
0.000102659
-8.18707e-07
0.000103101
-8.53883e-07
0.000103559
-8.85602e-07
0.000104032
-9.14125e-07
0.000104518
-9.39669e-07
0.000105016
-9.62421e-07
0.000105525
-9.82566e-07
0.000106042
-1.00028e-06
0.000106568
-1.01574e-06
0.0001071
-1.02915e-06
0.000107639
-1.04071e-06
0.000108183
-1.05063e-06
0.000108731
-1.05913e-06
0.000109282
-1.06644e-06
0.000109837
-1.07274e-06
0.000110395
-1.07824e-06
0.000110956
-1.0831e-06
0.000111518
-1.08744e-06
0.000112083
-1.09139e-06
0.00011265
-1.095e-06
0.000113218
-1.09832e-06
0.000113788
-1.10134e-06
0.000114359
-1.10405e-06
0.000114931
-1.1064e-06
0.000115504
-1.1083e-06
0.000116078
-1.10967e-06
0.000116652
-1.1104e-06
0.000117227
-1.11037e-06
0.0001178
-1.10946e-06
0.000118373
-1.10751e-06
0.000118944
-1.10441e-06
0.000119513
-1.1e-06
0.000120078
-1.09413e-06
0.00012064
-1.08667e-06
0.000121197
-1.07744e-06
0.000121748
-1.0663e-06
0.000122292
-1.05308e-06
0.000122828
-1.03759e-06
0.000123355
-1.01966e-06
0.000123872
-9.99061e-07
0.000124376
-9.75577e-07
0.000124866
-9.48949e-07
0.000125341
-9.18888e-07
0.000125798
-8.85064e-07
0.000126236
-8.47096e-07
0.000126651
-8.04538e-07
0.000127043
-7.5687e-07
0.000127406
-7.03473e-07
0.000127739
-6.43607e-07
0.000128037
-5.76383e-07
0.000128297
-5.00717e-07
0.000128512
-4.15288e-07
0.000128678
-3.18456e-07
0.000128788
-2.08181e-07
0.000128833
-8.18883e-08
0.000128804
6.37169e-08
0.000128689
2.32972e-07
0.000128474
4.31615e-07
0.000128139
6.67319e-07
0.000127663
9.50527e-07
0.000127016
1.29573e-06
0.000126158
1.72344e-06
0.000125038
2.26319e-06
0.000123587
2.95835e-06
0.000121711
3.8735e-06
0.000119285
5.10562e-06
0.000116143
6.79916e-06
0.000112087
9.16339e-06
0.00010694
1.24906e-05
0.000100835
1.70984e-05
2.26675e-05
9.59532e-05
0.000106648
-2.10483e-07
0.000106786
-3.88308e-07
0.000106978
-5.41883e-07
0.000107217
-6.74348e-07
0.000107498
-7.90664e-07
0.000107816
-8.93786e-07
0.000108166
-9.85754e-07
0.000108546
-1.0682e-06
0.000108953
-1.14238e-06
0.000109383
-1.20928e-06
0.000109834
-1.26969e-06
0.000110306
-1.32423e-06
0.000110794
-1.3734e-06
0.000111298
-1.4176e-06
0.000111817
-1.45716e-06
0.000112348
-1.49239e-06
0.00011289
-1.52357e-06
0.000113442
-1.55096e-06
0.000114002
-1.57485e-06
0.000114569
-1.59554e-06
0.000115143
-1.61336e-06
0.000115722
-1.62864e-06
0.000116306
-1.6417e-06
0.000116894
-1.6529e-06
0.000117485
-1.66254e-06
0.000118079
-1.67091e-06
0.000118675
-1.67829e-06
0.000119274
-1.68487e-06
0.000119875
-1.69082e-06
0.000120478
-1.69625e-06
0.000121082
-1.70122e-06
0.000121688
-1.70573e-06
0.000122295
-1.70975e-06
0.000122903
-1.7132e-06
0.000123512
-1.71596e-06
0.000124122
-1.7179e-06
0.000124731
-1.71884e-06
0.000125341
-1.7186e-06
0.00012595
-1.71698e-06
0.000126558
-1.71377e-06
0.000127163
-1.70876e-06
0.000127766
-1.70172e-06
0.000128366
-1.69244e-06
0.000128962
-1.68067e-06
0.000129552
-1.66619e-06
0.000130135
-1.64874e-06
0.000130712
-1.62807e-06
0.000131279
-1.6039e-06
0.000131837
-1.57595e-06
0.000132383
-1.54389e-06
0.000132916
-1.50738e-06
0.000133434
-1.46602e-06
0.000133936
-1.41939e-06
0.000134419
-1.36696e-06
0.000134882
-1.30818e-06
0.000135321
-1.24237e-06
0.000135734
-1.16874e-06
0.000136118
-1.08637e-06
0.000136469
-9.94139e-07
0.000136785
-8.90735e-07
0.00013706
-7.74549e-07
0.000137289
-6.43624e-07
0.000137467
-4.9556e-07
0.000137588
-3.27376e-07
0.000137642
-1.35344e-07
0.000137622
8.52399e-08
0.000137515
3.40469e-07
0.00013731
6.38301e-07
0.000136989
9.89192e-07
0.000136533
1.40706e-06
0.000135919
1.91068e-06
0.000135118
2.52572e-06
0.000134094
3.28755e-06
0.000132808
4.24534e-06
0.000131215
5.46731e-06
0.000129275
7.04674e-06
0.000126969
9.10577e-06
0.000124345
1.17886e-05
0.000121614
1.52225e-05
0.000119355
1.93578e-05
2.34564e-05
0.000118567
0.000114116
-2.86069e-07
0.000114261
-5.33109e-07
0.000114464
-7.45117e-07
0.000114718
-9.28197e-07
0.000115017
-1.08887e-06
0.000115355
-1.23125e-06
0.000115728
-1.35818e-06
0.000116132
-1.47194e-06
0.000116564
-1.57425e-06
0.000117022
-1.6665e-06
0.000117503
-1.74977e-06
0.000118005
-1.82492e-06
0.000118525
-1.89263e-06
0.000119061
-1.95347e-06
0.000119613
-2.00791e-06
0.000120178
-2.05635e-06
0.000120755
-2.09918e-06
0.000121342
-2.13678e-06
0.000121938
-2.16953e-06
0.000122541
-2.19787e-06
0.000123151
-2.22222e-06
0.000123767
-2.24305e-06
0.000124387
-2.26082e-06
0.000125012
-2.27599e-06
0.00012564
-2.289e-06
0.00012627
-2.30026e-06
0.000126904
-2.31013e-06
0.000127539
-2.31888e-06
0.000128176
-2.32676e-06
0.000128816
-2.3339e-06
0.000129456
-2.3404e-06
0.000130098
-2.34627e-06
0.000130741
-2.35144e-06
0.000131386
-2.35583e-06
0.00013203
-2.35926e-06
0.000132676
-2.36155e-06
0.000133321
-2.36246e-06
0.000133965
-2.36174e-06
0.000134609
-2.35912e-06
0.000135251
-2.35432e-06
0.000135891
-2.34703e-06
0.000136528
-2.33696e-06
0.00013716
-2.32379e-06
0.000137788
-2.30721e-06
0.00013841
-2.2869e-06
0.000139026
-2.26251e-06
0.000139633
-2.2337e-06
0.00014023
-2.20011e-06
0.000140817
-2.16132e-06
0.000141392
-2.11692e-06
0.000141952
-2.06644e-06
0.000142497
-2.00935e-06
0.000143024
-1.94506e-06
0.000143531
-1.87291e-06
0.000144016
-1.79212e-06
0.000144477
-1.70182e-06
0.00014491
-1.60095e-06
0.000145314
-1.48831e-06
0.000145683
-1.36245e-06
0.000146015
-1.22165e-06
0.000146306
-1.06382e-06
0.00014655
-8.86479e-07
0.000146742
-6.86557e-07
0.000146876
-4.60305e-07
0.000146945
-2.03084e-07
0.00014694
9.08622e-08
0.000146853
4.28821e-07
0.000146672
8.20125e-07
0.000146386
1.27676e-06
0.00014598
1.81419e-06
0.000145439
2.45252e-06
0.000144748
3.21799e-06
0.000143891
4.14482e-06
0.00014286
5.2773e-06
0.000141657
6.67161e-06
0.000140309
8.39585e-06
0.000138891
1.05246e-05
0.000137561
1.31198e-05
0.000136603
1.61809e-05
0.000136433
1.95285e-05
2.25806e-05
0.00013731
0.000122106
-3.64226e-07
0.000122258
-6.85258e-07
0.000122473
-9.59588e-07
0.000122742
-1.19682e-06
0.000123058
-1.40494e-06
0.000123417
-1.58928e-06
0.000123813
-1.75356e-06
0.000124242
-1.90072e-06
0.000124702
-2.03302e-06
0.000125188
-2.15226e-06
0.000125699
-2.25984e-06
0.000126232
-2.35687e-06
0.000126784
-2.44426e-06
0.000127355
-2.52273e-06
0.000127941
-2.59289e-06
0.000128541
-2.65527e-06
0.000129153
-2.71037e-06
0.000129776
-2.75868e-06
0.000130408
-2.80071e-06
0.000131049
-2.837e-06
0.000131696
-2.86811e-06
0.000132349
-2.89464e-06
0.000133007
-2.91719e-06
0.000133669
-2.93636e-06
0.000134334
-2.95272e-06
0.000135002
-2.96678e-06
0.000135672
-2.97902e-06
0.000136345
-2.9898e-06
0.000137019
-2.99942e-06
0.000137695
-3.00808e-06
0.000138372
-3.01589e-06
0.00013905
-3.02287e-06
0.000139729
-3.02894e-06
0.000140409
-3.03398e-06
0.000141089
-3.03778e-06
0.000141769
-3.0401e-06
0.000142449
-3.04063e-06
0.000143128
-3.03906e-06
0.000143805
-3.03503e-06
0.000144481
-3.02818e-06
0.000145153
-3.01813e-06
0.000145823
-3.00449e-06
0.000146487
-2.98687e-06
0.000147146
-2.96485e-06
0.000147799
-2.93804e-06
0.000148444
-2.90599e-06
0.00014908
-2.86828e-06
0.000149706
-2.82442e-06
0.00015032
-2.77393e-06
0.000150921
-2.71626e-06
0.000151507
-2.65082e-06
0.000152076
-2.57698e-06
0.000152626
-2.49398e-06
0.000153156
-2.40102e-06
0.000153662
-2.29714e-06
0.000154143
-2.18127e-06
0.000154595
-2.05213e-06
0.000155017
-1.90827e-06
0.000155404
-1.74794e-06
0.000155752
-1.5691e-06
0.000156059
-1.3693e-06
0.000156319
-1.14561e-06
0.000156529
-8.94517e-07
0.000156681
-6.11735e-07
0.000156771
-2.92064e-07
0.000156793
7.08159e-08
0.000156738
4.84683e-07
0.0001566
9.59209e-07
0.000156371
1.50648e-06
0.000156045
2.14149e-06
0.000155616
2.88287e-06
0.000155082
3.75353e-06
0.000154446
4.78135e-06
0.000153725
5.9994e-06
0.000152953
7.44497e-06
0.000152193
9.15619e-06
0.000151556
1.11634e-05
0.000151206
1.34705e-05
0.000151368
1.60199e-05
0.000152265
1.86321e-05
2.09308e-05
0.000153916
0.000130656
-4.44993e-07
0.000130815
-8.4461e-07
0.000131041
-1.18523e-06
0.000131325
-1.48026e-06
0.00013166
-1.73907e-06
0.000132039
-1.96821e-06
0.000132458
-2.17234e-06
0.000132913
-2.3551e-06
0.0001334
-2.51934e-06
0.000133916
-2.66727e-06
0.000134458
-2.80066e-06
0.000135023
-2.9209e-06
0.000135608
-3.02911e-06
0.000136213
-3.12621e-06
0.000136834
-3.21295e-06
0.00013747
-3.28999e-06
0.000138119
-3.35795e-06
0.000138779
-3.41746e-06
0.000139449
-3.46913e-06
0.000140127
-3.51363e-06
0.000140812
-3.55168e-06
0.000141503
-3.58401e-06
0.000142198
-3.61135e-06
0.000142898
-3.63447e-06
0.000143601
-3.65405e-06
0.000144306
-3.67075e-06
0.000145014
-3.68515e-06
0.000145724
-3.69771e-06
0.000146435
-3.7088e-06
0.000147147
-3.71866e-06
0.00014786
-3.72745e-06
0.000148574
-3.73517e-06
0.000149289
-3.74177e-06
0.000150003
-3.74706e-06
0.000150718
-3.7508e-06
0.000151433
-3.75269e-06
0.000152146
-3.75237e-06
0.000152858
-3.74944e-06
0.000153568
-3.74346e-06
0.000154276
-3.734e-06
0.00015498
-3.72058e-06
0.00015568
-3.70272e-06
0.000156375
-3.67996e-06
0.000157063
-3.65178e-06
0.000157745
-3.61769e-06
0.000158417
-3.57718e-06
0.000159081
-3.5297e-06
0.000159732
-3.4747e-06
0.000160372
-3.41157e-06
0.000160997
-3.33967e-06
0.000161606
-3.25831e-06
0.000162197
-3.16673e-06
0.000162769
-3.06405e-06
0.000163318
-2.94932e-06
0.000163844
-2.82145e-06
0.000164344
-2.67918e-06
0.000164814
-2.52109e-06
0.000165253
-2.34549e-06
0.000165657
-2.15045e-06
0.000166023
-1.9337e-06
0.000166347
-1.69254e-06
0.000166627
-1.42381e-06
0.000166857
-1.12375e-06
0.000167035
-7.8787e-07
0.000167155
-4.10832e-07
0.000167213
1.3696e-08
0.000167206
4.93267e-07
0.000167129
1.0368e-06
0.000166982
1.6552e-06
0.000166763
2.36132e-06
0.000166477
3.17019e-06
0.000166133
4.09905e-06
0.000165748
5.16703e-06
0.000165355
6.39419e-06
0.000165001
7.7994e-06
0.000164762
9.39611e-06
0.000164742
1.11849e-05
0.000165073
1.31409e-05
0.000165899
1.51947e-05
0.000167324
1.72084e-05
1.89597e-05
0.000169296
0.000139804
-5.28448e-07
0.000139971
-1.01107e-06
0.000140208
-1.42199e-06
0.000140507
-1.77852e-06
0.000140859
-2.09137e-06
0.00014126
-2.36827e-06
0.000141703
-2.61485e-06
0.000142184
-2.83551e-06
0.000142699
-3.0337e-06
0.000143245
-3.2121e-06
0.000143818
-3.37285e-06
0.000144416
-3.51766e-06
0.000145035
-3.64787e-06
0.000145675
-3.7646e-06
0.000146332
-3.86876e-06
0.000147004
-3.96117e-06
0.00014769
-4.04258e-06
0.000148388
-4.11372e-06
0.000149096
-4.17536e-06
0.000149812
-4.2283e-06
0.000150535
-4.2734e-06
0.000151264
-4.31154e-06
0.000151998
-4.34362e-06
0.000152736
-4.37054e-06
0.000153476
-4.39315e-06
0.00015422
-4.41222e-06
0.000154965
-4.42846e-06
0.000155711
-4.44244e-06
0.000156459
-4.45459e-06
0.000157207
-4.46523e-06
0.000157956
-4.47453e-06
0.000158705
-4.48251e-06
0.000159454
-4.4891e-06
0.000160203
-4.4941e-06
0.000160951
-4.49723e-06
0.000161699
-4.49811e-06
0.000162445
-4.49632e-06
0.000163188
-4.49138e-06
0.00016393
-4.48279e-06
0.000164667
-4.47001e-06
0.000165401
-4.45249e-06
0.00016613
-4.42966e-06
0.000166853
-4.40095e-06
0.000167569
-4.36579e-06
0.000168276
-4.32357e-06
0.000168974
-4.2737e-06
0.000169662
-4.21555e-06
0.000170338
-4.14846e-06
0.000170999
-4.07176e-06
0.000171646
-3.9847e-06
0.000172276
-3.88649e-06
0.000172887
-3.77626e-06
0.000173478
-3.65306e-06
0.000174046
-3.51581e-06
0.000174589
-3.3633e-06
0.000175106
-3.19418e-06
0.000175593
-3.00689e-06
0.000176049
-2.79963e-06
0.00017647
-2.57037e-06
0.000176855
-2.31671e-06
0.0001772
-2.03591e-06
0.000177502
-1.72477e-06
0.000177759
-1.37955e-06
0.000177969
-9.95906e-07
0.000178128
-5.688e-07
0.000178236
-9.24122e-08
0.00017829
4.39861e-07
0.000178293
1.03545e-06
0.000178247
1.70304e-06
0.000178157
2.45228e-06
0.000178035
3.29361e-06
0.000177897
4.23785e-06
0.00017777
5.2954e-06
0.000177691
6.47492e-06
0.00017771
7.78115e-06
0.000177896
9.21157e-06
0.00017833
1.07515e-05
0.000179105
1.23673e-05
0.000180302
1.39987e-05
0.00018196
1.55521e-05
1.69024e-05
0.000184018
0.000149594
-6.14693e-07
0.000149767
-1.18455e-06
0.000150015
-1.66981e-06
0.000150329
-2.09156e-06
0.0001507
-2.46187e-06
0.000151121
-2.78957e-06
0.000151588
-3.0813e-06
0.000152096
-3.34224e-06
0.000152639
-3.57646e-06
0.000153215
-3.78716e-06
0.00015382
-3.97688e-06
0.000154451
-4.14762e-06
0.000155106
-4.30103e-06
0.000155781
-4.43839e-06
0.000156474
-4.56083e-06
0.000157183
-4.66929e-06
0.000157907
-4.76468e-06
0.000158643
-4.84786e-06
0.000159388
-4.91975e-06
0.000160143
-4.98129e-06
0.000160905
-5.03349e-06
0.000161672
-5.0774e-06
0.000162444
-5.11407e-06
0.00016322
-5.14456e-06
0.000163999
-5.16988e-06
0.000164779
-5.19096e-06
0.000165561
-5.20861e-06
0.000166344
-5.22352e-06
0.000167128
-5.23621e-06
0.000167912
-5.24705e-06
0.000168695
-5.25625e-06
0.000169479
-5.26387e-06
0.000170261
-5.2698e-06
0.000171043
-5.27383e-06
0.000171823
-5.27562e-06
0.000172602
-5.27475e-06
0.000173378
-5.27073e-06
0.000174152
-5.26301e-06
0.000174922
-5.251e-06
0.000175688
-5.23407e-06
0.000176449
-5.21159e-06
0.000177204
-5.1829e-06
0.000177953
-5.14736e-06
0.000178693
-5.10428e-06
0.000179424
-5.053e-06
0.000180146
-4.99283e-06
0.000180855
-4.92305e-06
0.000181551
-4.84295e-06
0.000182233
-4.75175e-06
0.000182899
-4.64863e-06
0.000183547
-4.53274e-06
0.000184176
-4.40313e-06
0.000184783
-4.25876e-06
0.000185367
-4.0985e-06
0.000185927
-3.92109e-06
0.00018646
-3.72508e-06
0.000186963
-3.50891e-06
0.000187436
-3.27074e-06
0.000187876
-3.00854e-06
0.000188281
-2.71998e-06
0.000188649
-2.4024e-06
0.000188978
-2.0528e-06
0.000189268
-1.66775e-06
0.000189517
-1.24337e-06
0.000189725
-7.75316e-07
0.000189893
-2.58736e-07
0.000190023
3.1159e-07
0.000190118
9.41091e-07
0.000190187
1.63571e-06
0.000190239
2.40154e-06
0.00019029
3.24441e-06
0.00019036
4.16929e-06
0.000190477
5.17946e-06
0.000190678
6.27532e-06
0.000191007
7.45279e-06
0.000191519
8.7012e-06
0.000192271
1.00008e-05
0.000193319
1.132e-05
0.000194706
1.26133e-05
0.000196438
1.38212e-05
1.48749e-05
0.000198467
0.000160068
-7.03833e-07
0.000160249
-1.365e-06
0.000160508
-1.92862e-06
0.000160836
-2.41931e-06
0.000161225
-2.85051e-06
0.000161668
-3.23211e-06
0.000162159
-3.57174e-06
0.000162693
-3.8754e-06
0.000163265
-4.1478e-06
0.000163872
-4.39267e-06
0.000164509
-4.61296e-06
0.000165173
-4.81105e-06
0.000165862
-4.98883e-06
0.000166573
-5.14784e-06
0.000167303
-5.28937e-06
0.00016805
-5.41455e-06
0.000168811
-5.52442e-06
0.000169585
-5.62002e-06
0.000170369
-5.70238e-06
0.000171162
-5.77262e-06
0.000171962
-5.8319e-06
0.000172768
-5.88143e-06
0.000173578
-5.92246e-06
0.000174392
-5.95619e-06
0.000175208
-5.98382e-06
0.000176025
-6.00641e-06
0.000176843
-6.02491e-06
0.000177662
-6.04014e-06
0.00017848
-6.0527e-06
0.000179299
-6.06303e-06
0.000180116
-6.07139e-06
0.000180932
-6.07785e-06
0.000181746
-6.0823e-06
0.000182559
-6.08451e-06
0.00018337
-6.08411e-06
0.000184178
-6.08061e-06
0.000184983
-6.07345e-06
0.000185784
-6.06202e-06
0.000186581
-6.04563e-06
0.000187372
-6.02359e-06
0.000188158
-5.99518e-06
0.000188937
-5.95965e-06
0.000189708
-5.91627e-06
0.00019047
-5.86429e-06
0.000191222
-5.80296e-06
0.000191963
-5.7315e-06
0.000192691
-5.64915e-06
0.000193405
-5.55511e-06
0.000194104
-5.44855e-06
0.000194786
-5.32861e-06
0.000195449
-5.19436e-06
0.000196093
-5.04482e-06
0.000196715
-4.87892e-06
0.000197314
-4.69551e-06
0.000197888
-4.49332e-06
0.000198435
-4.27094e-06
0.000198955
-4.02681e-06
0.000199445
-3.75921e-06
0.000199905
-3.46623e-06
0.000200332
-3.14572e-06
0.000200727
-2.79532e-06
0.000201088
-2.41242e-06
0.000201416
-1.99413e-06
0.000201712
-1.53733e-06
0.000201977
-1.03862e-06
0.000202214
-4.94449e-07
0.000202428
9.88688e-08
0.000202626
7.44646e-07
0.000202817
1.44594e-06
0.000203015
2.20556e-06
0.000203235
3.02543e-06
0.0002035
3.90601e-06
0.000203835
4.84564e-06
0.000204272
5.83979e-06
0.000204846
6.88004e-06
0.000205596
7.95311e-06
0.000206558
9.03991e-06
0.000207765
1.01149e-05
0.000209233
1.11463e-05
0.000210958
1.20976e-05
1.29315e-05
0.000212903
0.000171276
-7.95961e-07
0.000171464
-1.55234e-06
0.000171734
-2.19832e-06
0.000172076
-2.76161e-06
0.000172484
-3.25714e-06
0.000172948
-3.69576e-06
0.000173463
-4.08609e-06
0.000174023
-4.43492e-06
0.000174624
-4.74766e-06
0.000175261
-5.02859e-06
0.00017593
-5.2811e-06
0.000176628
-5.50793e-06
0.000177352
-5.71127e-06
0.000178098
-5.89291e-06
0.000178865
-6.05433e-06
0.000179649
-6.19685e-06
0.000180448
-6.32167e-06
0.000181259
-6.42998e-06
0.000182081
-6.52298e-06
0.000182913
-6.60194e-06
0.000183751
-6.6682e-06
0.000184594
-6.72314e-06
0.000185442
-6.76819e-06
0.000186293
-6.80474e-06
0.000187145
-6.83414e-06
0.000187998
-6.85763e-06
0.000188852
-6.8763e-06
0.000189705
-6.89109e-06
0.000190557
-6.90271e-06
0.000191408
-6.91167e-06
0.000192257
-6.91828e-06
0.000193104
-6.92264e-06
0.000193949
-6.92464e-06
0.000194791
-6.92403e-06
0.000195629
-6.9204e-06
0.000196464
-6.91322e-06
0.000197295
-6.90186e-06
0.000198121
-6.88564e-06
0.000198941
-6.86381e-06
0.000199755
-6.83558e-06
0.000200563
-6.80014e-06
0.000201362
-6.75669e-06
0.000202152
-6.7044e-06
0.000202933
-6.64246e-06
0.000203702
-6.57005e-06
0.000204459
-6.48633e-06
0.000205202
-6.39048e-06
0.000205931
-6.28166e-06
0.000206644
-6.15899e-06
0.000207339
-6.02158e-06
0.000208015
-5.8685e-06
0.000208671
-5.69876e-06
0.000209305
-5.5113e-06
0.000209917
-5.30501e-06
0.000210504
-5.07866e-06
0.000211066
-4.83095e-06
0.000211602
-4.56046e-06
0.00021211
-4.26564e-06
0.000212591
-3.94483e-06
0.000213043
-3.59622e-06
0.000213467
-3.21788e-06
0.000213864
-2.80775e-06
0.000214236
-2.36367e-06
0.000214584
-1.88341e-06
0.000214911
-1.36473e-06
0.000215224
-8.05438e-07
0.000215528
-2.0346e-07
0.000215832
4.42723e-07
0.000216146
1.13364e-06
0.000216483
1.8694e-06
0.000216861
2.649e-06
0.000217299
3.46993e-06
0.000217818
4.32777e-06
0.000218444
5.21566e-06
0.000219202
6.12401e-06
0.000220116
7.04006e-06
0.00022121
7.94786e-06
0.000222498
8.82843e-06
0.000223985
9.66053e-06
0.000225662
1.04222e-05
1.10935e-05
0.000227501
0.000183269
-8.91134e-07
0.000183463
-1.74648e-06
0.000183744
-2.47873e-06
0.000184101
-3.11826e-06
0.000184526
-3.68149e-06
0.000185011
-4.18023e-06
0.00018555
-4.62402e-06
0.000186136
-5.0205e-06
0.000186765
-5.37575e-06
0.000187433
-5.69462e-06
0.000188134
-5.98097e-06
0.000188865
-6.23793e-06
0.000189623
-6.46799e-06
0.000190405
-6.6732e-06
0.000191207
-6.85528e-06
0.000192028
-7.01571e-06
0.000192864
-7.15589e-06
0.000193713
-7.27715e-06
0.000194572
-7.38088e-06
0.000195441
-7.46851e-06
0.000196316
-7.54156e-06
0.000197197
-7.6016e-06
0.000198081
-7.65023e-06
0.000198967
-7.68905e-06
0.000199855
-7.71958e-06
0.000200743
-7.74322e-06
0.00020163
-7.76124e-06
0.000202516
-7.77469e-06
0.0002034
-7.7844e-06
0.000204282
-7.79097e-06
0.000205161
-7.79477e-06
0.000206036
-7.79591e-06
0.000206908
-7.79432e-06
0.000207777
-7.78972e-06
0.00020864
-7.78168e-06
0.000209499
-7.76962e-06
0.000210353
-7.75286e-06
0.0002112
-7.73065e-06
0.000212041
-7.70215e-06
0.000212874
-7.66652e-06
0.000213699
-7.62288e-06
0.000214515
-7.57035e-06
0.000215321
-7.50803e-06
0.000216116
-7.43505e-06
0.000216899
-7.35053e-06
0.000217669
-7.2536e-06
0.000218424
-7.1434e-06
0.000219164
-7.01905e-06
0.000219887
-6.87967e-06
0.000220592
-6.72438e-06
0.000221278
-6.55225e-06
0.000221944
-6.36234e-06
0.000222588
-6.15366e-06
0.00022321
-5.92517e-06
0.00022381
-5.67579e-06
0.000224385
-5.40438e-06
0.000224937
-5.10973e-06
0.000225464
-4.79057e-06
0.000225966
-4.44559e-06
0.000226446
-4.07341e-06
0.000226902
-3.67265e-06
0.000227338
-3.2419e-06
0.000227756
-2.77981e-06
0.00022816
-2.28511e-06
0.000228554
-1.7567e-06
0.000228944
-1.1937e-06
0.000229338
-5.95586e-07
0.000229745
3.78333e-08
0.000230174
7.05494e-07
0.00023064
1.40521e-06
0.000231157
2.13421e-06
0.00023174
2.88841e-06
0.000232407
3.6622e-06
0.000233176
4.4483e-06
0.000234064
5.23767e-06
0.000235086
6.01954e-06
0.000236254
6.78162e-06
0.000237574
7.5105e-06
0.000239043
8.19244e-06
0.000240653
8.81443e-06
9.36584e-06
0.000242382
0.000196102
-9.89367e-07
0.000196303
-1.94726e-06
0.000196594
-2.76958e-06
0.000196965
-3.48887e-06
0.000197407
-4.12311e-06
0.000197913
-4.68501e-06
0.000198474
-5.185e-06
0.000199086
-5.63155e-06
0.000199743
-6.03145e-06
0.00020044
-6.39011e-06
0.000201172
-6.7119e-06
0.000201936
-7.00032e-06
0.000202728
-7.25822e-06
0.000203544
-7.4879e-06
0.000204382
-7.69133e-06
0.000205238
-7.87018e-06
0.00020611
-8.02604e-06
0.000206995
-8.16043e-06
0.000207891
-8.27489e-06
0.000208796
-8.37105e-06
0.000209707
-8.4506e-06
0.000210623
-8.51532e-06
0.000211542
-8.56699e-06
0.000212462
-8.60741e-06
0.000213383
-8.63828e-06
0.000214304
-8.66121e-06
0.000215223
-8.6776e-06
0.000216139
-8.68867e-06
0.000217053
-8.69535e-06
0.000217962
-8.69835e-06
0.000218868
-8.6981e-06
0.00021977
-8.69476e-06
0.000220666
-8.68828e-06
0.000221558
-8.67837e-06
0.000222443
-8.66458e-06
0.000223322
-8.64629e-06
0.000224195
-8.62278e-06
0.00022506
-8.59323e-06
0.000225917
-8.55675e-06
0.000226766
-8.51243e-06
0.000227605
-8.45933e-06
0.000228434
-8.39649e-06
0.000229251
-8.32299e-06
0.000230057
-8.23789e-06
0.000230849
-8.14027e-06
0.000231627
-8.02925e-06
0.00023239
-7.90394e-06
0.000233137
-7.76347e-06
0.000233867
-7.60698e-06
0.000234579
-7.43362e-06
0.000235271
-7.24252e-06
0.000235944
-7.03282e-06
0.000236596
-6.80365e-06
0.000237228
-6.55412e-06
0.000237838
-6.28333e-06
0.000238426
-5.99036e-06
0.000238993
-5.67429e-06
0.000239538
-5.33421e-06
0.000240064
-4.96922e-06
0.000240571
-4.57843e-06
0.000241062
-4.16106e-06
0.000241539
-3.71639e-06
0.000242005
-3.24387e-06
0.000242465
-2.74313e-06
0.000242924
-2.21409e-06
0.000243389
-1.65701e-06
0.000243868
-1.07256e-06
0.00024437
-4.61834e-07
0.000244904
1.73483e-07
0.000245481
8.30203e-07
0.000246113
1.50421e-06
0.000246812
2.19087e-06
0.000247591
2.88453e-06
0.000248463
3.57849e-06
0.000249437
4.26509e-06
0.000250523
4.93589e-06
0.000251724
5.58189e-06
0.000253042
6.19399e-06
0.000254473
6.76345e-06
0.000256006
7.28266e-06
7.74611e-06
0.000257628
0.000209833
-1.09061e-06
0.00021004
-2.15445e-06
0.000210342
-3.07047e-06
0.000210726
-3.87293e-06
0.000211185
-4.58135e-06
0.00021171
-5.20935e-06
0.000212294
-5.76818e-06
0.000212931
-6.26716e-06
0.000213614
-6.71376e-06
0.000214339
-7.11401e-06
0.000215101
-7.47275e-06
0.000215897
-7.79392e-06
0.000216721
-8.08068e-06
0.00021757
-8.33566e-06
0.000218442
-8.56105e-06
0.000219332
-8.75875e-06
0.000220238
-8.93054e-06
0.000221158
-9.07811e-06
0.000222089
-9.20322e-06
0.000223027
-9.30765e-06
0.000223972
-9.39331e-06
0.000224922
-9.46216e-06
0.000225873
-9.5162e-06
0.000226826
-9.55743e-06
0.000227778
-9.58774e-06
0.000228728
-9.60893e-06
0.000229676
-9.62259e-06
0.00023062
-9.63006e-06
0.00023156
-9.63245e-06
0.000232494
-9.63054e-06
0.000233424
-9.62485e-06
0.000234348
-9.61561e-06
0.000235265
-9.60277e-06
0.000236175
-9.58607e-06
0.000237079
-9.56504e-06
0.000237974
-9.53904e-06
0.000238861
-9.50731e-06
0.00023974
-9.46897e-06
0.000240609
-9.42309e-06
0.000241468
-9.36871e-06
0.000242317
-9.30484e-06
0.000243153
-9.23047e-06
0.000243978
-9.14463e-06
0.000244789
-9.04636e-06
0.000245586
-8.93473e-06
0.000246368
-8.80883e-06
0.000247135
-8.66781e-06
0.000247885
-8.51082e-06
0.000248618
-8.33704e-06
0.000249332
-8.14569e-06
0.000250029
-7.93601e-06
0.000250706
-7.70726e-06
0.000251363
-7.45872e-06
0.000252001
-7.1897e-06
0.00025262
-6.89953e-06
0.00025322
-6.58757e-06
0.000253801
-6.25325e-06
0.000254365
-5.89601e-06
0.000254914
-5.51542e-06
0.000255449
-5.11111e-06
0.000255973
-4.68287e-06
0.000256489
-4.23063e-06
0.000257002
-3.75456e-06
0.000257516
-3.25507e-06
0.000258037
-2.7329e-06
0.000258572
-2.18915e-06
0.000259127
-1.62536e-06
0.00025971
-1.04347e-06
0.000260332
-4.45779e-07
0.000260999
1.64776e-07
0.000261721
7.83902e-07
0.000262508
1.40654e-06
0.000263367
2.02762e-06
0.000264306
2.64148e-06
0.000265331
3.24204e-06
0.000266445
3.82299e-06
0.000267651
4.378e-06
0.000268946
4.90101e-06
0.000270325
5.38658e-06
0.000271779
5.83032e-06
6.22954e-06
0.000273297
0.000224525
-1.19475e-06
0.000224739
-2.3677e-06
0.00022505
-3.38082e-06
0.000225447
-4.26968e-06
0.000225921
-5.05529e-06
0.000226465
-5.75215e-06
0.00022707
-6.37235e-06
0.00022773
-6.92599e-06
0.000228439
-7.42125e-06
0.000229191
-7.86476e-06
0.000229981
-8.26187e-06
0.000230806
-8.61694e-06
0.00023166
-8.93351e-06
0.000232541
-9.21449e-06
0.000233444
-9.46234e-06
0.000234367
-9.6792e-06
0.000235305
-9.86704e-06
0.000236257
-1.00278e-05
0.00023722
-1.01633e-05
0.00023819
-1.02756e-05
0.000239166
-1.03669e-05
0.000240145
-1.04392e-05
0.000241127
-1.04948e-05
0.000242108
-1.05359e-05
0.000243087
-1.05646e-05
0.000244064
-1.05829e-05
0.000245037
-1.05925e-05
0.000246005
-1.05951e-05
0.000246967
-1.05917e-05
0.000247923
-1.05834e-05
0.000248871
-1.05708e-05
0.000249813
-1.0554e-05
0.000250746
-1.05332e-05
0.000251671
-1.05081e-05
0.000252588
-1.04782e-05
0.000253494
-1.04429e-05
0.000254392
-1.04014e-05
0.000255278
-1.03527e-05
0.000256154
-1.0296e-05
0.000257019
-1.02301e-05
0.000257871
-1.01542e-05
0.000258711
-1.0067e-05
0.000259537
-9.96774e-06
0.000260349
-9.85532e-06
0.000261146
-9.72886e-06
0.000261927
-9.58746e-06
0.000262693
-9.4303e-06
0.000263441
-9.25658e-06
0.000264173
-9.06559e-06
0.000264887
-8.85662e-06
0.000265582
-8.62907e-06
0.00026626
-8.38233e-06
0.00026692
-8.11589e-06
0.000267562
-7.82928e-06
0.000268188
-7.5221e-06
0.000268797
-7.19402e-06
0.000269391
-6.84481e-06
0.000269972
-6.47431e-06
0.000270542
-6.08252e-06
0.000271103
-5.66957e-06
0.000271658
-5.23575e-06
0.000272211
-4.78157e-06
0.000272767
-4.30777e-06
0.00027333
-3.81536e-06
0.000273905
-3.30566e-06
0.000274498
-2.78034e-06
0.000275117
-2.24142e-06
0.000275767
-1.69128e-06
0.000276456
-1.13263e-06
0.000277191
-5.68385e-07
0.000277979
-1.72626e-09
0.000278825
5.62924e-07
0.000279734
1.12076e-06
0.00028071
1.66707e-06
0.000281757
2.19729e-06
0.000282875
2.70685e-06
0.000284064
3.1914e-06
0.00028532
3.64699e-06
0.000286638
4.07028e-06
0.000288012
4.45881e-06
4.81142e-06
0.000289432
0.000240246
-1.30158e-06
0.000240465
-2.58652e-06
0.000240785
-3.69984e-06
0.000241194
-4.67808e-06
0.000241683
-5.54365e-06
0.000242243
-6.31195e-06
0.000242868
-6.99584e-06
0.000243549
-7.60619e-06
0.000244281
-8.1519e-06
0.000245058
-8.64018e-06
0.000245875
-9.07693e-06
0.000246726
-9.46693e-06
0.000247609
-9.81409e-06
0.000248518
-1.01216e-05
0.00024945
-1.03923e-05
0.000250401
-1.06285e-05
0.000251369
-1.08324e-05
0.00025235
-1.1006e-05
0.00025334
-1.11516e-05
0.000254339
-1.12714e-05
0.000255342
-1.13675e-05
0.000256348
-1.14425e-05
0.000257355
-1.14987e-05
0.00025836
-1.15386e-05
0.000259363
-1.15645e-05
0.000260362
-1.15785e-05
0.000261355
-1.15828e-05
0.000262342
-1.15789e-05
0.000263321
-1.15683e-05
0.000264293
-1.15519e-05
0.000265256
-1.15306e-05
0.00026621
-1.15047e-05
0.000267154
-1.14742e-05
0.000268088
-1.14389e-05
0.000269011
-1.13985e-05
0.000269924
-1.13522e-05
0.000270825
-1.12992e-05
0.000271714
-1.12386e-05
0.000272591
-1.11695e-05
0.000273455
-1.10908e-05
0.000274305
-1.10014e-05
0.000275142
-1.09003e-05
0.000275964
-1.07865e-05
0.000276771
-1.06591e-05
0.000277562
-1.05171e-05
0.000278337
-1.03597e-05
0.000279096
-1.01862e-05
0.000279839