/*--------------------------------*- C++ -*----------------------------------*\
| =========                 |                                                 |
| \\      /  F ield         | OpenFOAM: The Open Source CFD Toolbox           |
|  \\    /   O peration     | Version:  2106                                  |
|   \\  /    A nd           | Website:  www.openfoam.com                      |
|    \\/     M anipulation  |                                                 |
\*---------------------------------------------------------------------------*/
FoamFile
{
    version     2.0;
    format      ascii;
    arch        "LSB;label=32;scalar=64";
    class       volScalarField;
    location    "2.8";
    object      T;
}
// * * * * * * * * * * * * * * * * * * * * * * * * * * * * * * * * * * * * * //

dimensions      [0 0 0 1 0 0 0];

internalField   nonuniform List<scalar> 
12013
(
300.002
300.006
300.01
300.015
300.02
300.025
300.03
300.036
300.042
300.048
300.055
300.062
300.069
300.077
300.086
300.094
300.104
300.113
300.124
300.135
300.146
300.158
300.171
300.184
300.198
300.212
300.227
300.243
300.259
300.277
300.294
300.313
300.332
300.352
300.373
300.395
300.417
300.441
300.465
300.489
300.515
300.542
300.569
300.598
300.627
300.657
300.688
300.721
300.754
300.788
300.823
300.859
300.897
300.935
300.974
301.015
301.057
301.1
301.145
301.19
301.238
301.286
301.336
301.388
301.441
301.496
301.553
301.612
301.673
301.737
301.803
301.872
301.944
302.02
302.1
302.184
302.275
302.374
302.482
302.605
302.751
300.002
300.006
300.01
300.015
300.02
300.025
300.03
300.036
300.042
300.048
300.055
300.062
300.069
300.077
300.086
300.094
300.104
300.113
300.124
300.135
300.146
300.158
300.171
300.184
300.198
300.212
300.227
300.243
300.259
300.276
300.294
300.313
300.332
300.352
300.373
300.395
300.417
300.44
300.465
300.489
300.515
300.542
300.569
300.598
300.627
300.657
300.688
300.72
300.754
300.788
300.823
300.859
300.896
300.935
300.974
301.015
301.057
301.1
301.144
301.19
301.237
301.286
301.336
301.387
301.44
301.495
301.552
301.611
301.672
301.735
301.801
301.87
301.942
302.017
302.096
302.18
302.269
302.365
302.469
302.583
302.709
300.002
300.006
300.01
300.015
300.02
300.025
300.03
300.036
300.042
300.048
300.055
300.062
300.069
300.077
300.085
300.094
300.104
300.113
300.124
300.135
300.146
300.158
300.171
300.184
300.198
300.212
300.227
300.243
300.259
300.276
300.294
300.313
300.332
300.352
300.373
300.395
300.417
300.44
300.464
300.489
300.515
300.542
300.569
300.597
300.627
300.657
300.688
300.72
300.753
300.787
300.822
300.859
300.896
300.934
300.974
301.014
301.056
301.099
301.143
301.189
301.236
301.284
301.334
301.386
301.439
301.493
301.55
301.609
301.669
301.732
301.797
301.865
301.936
302.01
302.088
302.17
302.256
302.348
302.445
302.548
302.655
300.002
300.006
300.01
300.015
300.02
300.025
300.03
300.036
300.042
300.048
300.055
300.062
300.069
300.077
300.085
300.094
300.104
300.113
300.124
300.135
300.146
300.158
300.17
300.184
300.197
300.212
300.227
300.243
300.259
300.276
300.294
300.313
300.332
300.352
300.373
300.394
300.417
300.44
300.464
300.489
300.515
300.541
300.569
300.597
300.626
300.656
300.688
300.72
300.753
300.787
300.822
300.858
300.895
300.933
300.973
301.013
301.055
301.098
301.142
301.187
301.234
301.282
301.332
301.383
301.436
301.49
301.547
301.605
301.665
301.727
301.791
301.858
301.928
302
302.076
302.154
302.237
302.323
302.412
302.504
302.597
300.002
300.006
300.01
300.015
300.02
300.025
300.03
300.036
300.042
300.048
300.055
300.062
300.069
300.077
300.085
300.094
300.104
300.113
300.124
300.134
300.146
300.158
300.17
300.184
300.197
300.212
300.227
300.243
300.259
300.276
300.294
300.313
300.332
300.352
300.373
300.394
300.417
300.44
300.464
300.489
300.514
300.541
300.568
300.596
300.626
300.656
300.687
300.719
300.752
300.786
300.821
300.857
300.894
300.932
300.971
301.011
301.053
301.096
301.14
301.185
301.231
301.279
301.329
301.379
301.432
301.486
301.541
301.599
301.658
301.719
301.782
301.848
301.915
301.986
302.058
302.134
302.211
302.291
302.373
302.456
302.538
300.002
300.006
300.01
300.015
300.02
300.025
300.03
300.036
300.042
300.048
300.055
300.062
300.069
300.077
300.085
300.094
300.103
300.113
300.124
300.134
300.146
300.158
300.17
300.183
300.197
300.212
300.227
300.242
300.259
300.276
300.294
300.312
300.331
300.352
300.372
300.394
300.416
300.439
300.463
300.488
300.514
300.54
300.567
300.596
300.625
300.655
300.686
300.718
300.751
300.784
300.819
300.855
300.892
300.93
300.969
301.009
301.051
301.093
301.137
301.182
301.228
301.275
301.324
301.374
301.426
301.479
301.534
301.591
301.649
301.709
301.77
301.834
301.9
301.967
302.037
302.108
302.181
302.255
302.33
302.405
302.479
300.002
300.006
300.01
300.015
300.02
300.025
300.03
300.036
300.042
300.048
300.055
300.062
300.069
300.077
300.085
300.094
300.103
300.113
300.123
300.134
300.146
300.158
300.17
300.183
300.197
300.211
300.226
300.242
300.259
300.276
300.293
300.312
300.331
300.351
300.372
300.393
300.416
300.439
300.463
300.487
300.513
300.539
300.567
300.595
300.624
300.654
300.684
300.716
300.749
300.783
300.817
300.853
300.89
300.928
300.966
301.006
301.047
301.089
301.133
301.177
301.223
301.27
301.318
301.368
301.419
301.471
301.525
301.58
301.637
301.696
301.755
301.817
301.88
301.944
302.01
302.078
302.146
302.214
302.283
302.351
302.418
300.002
300.006
300.01
300.015
300.02
300.025
300.03
300.036
300.042
300.048
300.055
300.062
300.069
300.077
300.085
300.094
300.103
300.113
300.123
300.134
300.145
300.157
300.17
300.183
300.197
300.211
300.226
300.242
300.258
300.275
300.293
300.311
300.331
300.351
300.371
300.393
300.415
300.438
300.462
300.486
300.512
300.538
300.565
300.593
300.622
300.652
300.683
300.714
300.747
300.781
300.815
300.85
300.887
300.924
300.963
301.003
301.043
301.085
301.128
301.172
301.217
301.263
301.311
301.36
301.41
301.461
301.514
301.568
301.623
301.679
301.737
301.796
301.857
301.918
301.98
302.043
302.107
302.17
302.234
302.296
302.357
300.002
300.006
300.01
300.015
300.02
300.025
300.03
300.036
300.042
300.048
300.054
300.062
300.069
300.077
300.085
300.094
300.103
300.113
300.123
300.134
300.145
300.157
300.17
300.183
300.196
300.211
300.226
300.241
300.258
300.275
300.292
300.311
300.33
300.35
300.37
300.392
300.414
300.437
300.461
300.485
300.511
300.537
300.564
300.592
300.62
300.65
300.681
300.712
300.744
300.778
300.812
300.847
300.883
300.921
300.959
300.998
301.038
301.079
301.122
301.165
301.209
301.255
301.302
301.35
301.398
301.449
301.5
301.552
301.606
301.66
301.716
301.772
301.83
301.888
301.946
302.005
302.065
302.123
302.182
302.239
302.296
300.002
300.006
300.01
300.015
300.02
300.025
300.03
300.036
300.042
300.048
300.054
300.061
300.069
300.077
300.085
300.094
300.103
300.113
300.123
300.134
300.145
300.157
300.169
300.182
300.196
300.21
300.225
300.241
300.257
300.274
300.292
300.31
300.329
300.349
300.369
300.391
300.413
300.436
300.459
300.484
300.509
300.535
300.562
300.59
300.618
300.648
300.678
300.709
300.741
300.774
300.808
300.843
300.879
300.916
300.953
300.992
301.032
301.072
301.114
301.157
301.2
301.245
301.291
301.337
301.385
301.434
301.483
301.534
301.585
301.638
301.691
301.745
301.799
301.854
301.909
301.964
302.019
302.074
302.128
302.181
302.233
300.002
300.006
300.01
300.015
300.02
300.025
300.03
300.036
300.041
300.048
300.054
300.061
300.069
300.076
300.085
300.093
300.103
300.112
300.123
300.133
300.145
300.156
300.169
300.182
300.196
300.21
300.225
300.24
300.256
300.273
300.291
300.309
300.328
300.348
300.368
300.389
300.411
300.434
300.458
300.482
300.507
300.533
300.56
300.587
300.615
300.645
300.675
300.706
300.737
300.77
300.804
300.838
300.874
300.91
300.947
300.985
301.024
301.064
301.105
301.147
301.189
301.233
301.277
301.323
301.369
301.416
301.464
301.513
301.562
301.612
301.663
301.714
301.765
301.817
301.869
301.92
301.972
302.023
302.073
302.122
302.17
300.002
300.006
300.01
300.015
300.02
300.025
300.03
300.035
300.041
300.048
300.054
300.061
300.068
300.076
300.085
300.093
300.102
300.112
300.122
300.133
300.144
300.156
300.168
300.181
300.195
300.209
300.224
300.239
300.256
300.272
300.29
300.308
300.327
300.346
300.367
300.388
300.41
300.432
300.456
300.48
300.505
300.53
300.557
300.584
300.612
300.641
300.671
300.701
300.733
300.765
300.798
300.832
300.867
300.903
300.939
300.977
301.015
301.054
301.094
301.135
301.176
301.219
301.262
301.306
301.351
301.396
301.442
301.489
301.536
301.584
301.632
301.68
301.729
301.777
301.826
301.874
301.922
301.969
302.016
302.061
302.106
300.002
300.006
300.01
300.015
300.02
300.025
300.03
300.035
300.041
300.047
300.054
300.061
300.068
300.076
300.084
300.093
300.102
300.112
300.122
300.132
300.144
300.155
300.168
300.181
300.194
300.208
300.223
300.238
300.254
300.271
300.289
300.307
300.325
300.345
300.365
300.386
300.408
300.43
300.453
300.477
300.502
300.527
300.553
300.58
300.608
300.637
300.666
300.696
300.727
300.759
300.792
300.825
300.859
300.894
300.93
300.967
301.004
301.042
301.081
301.121
301.162
301.203
301.244
301.287
301.33
301.374
301.418
301.462
301.507
301.552
301.598
301.643
301.689
301.735
301.78
301.825
301.87
301.914
301.957
302
302.041
300.002
300.006
300.01
300.015
300.019
300.024
300.03
300.035
300.041
300.047
300.054
300.061
300.068
300.076
300.084
300.093
300.102
300.111
300.121
300.132
300.143
300.155
300.167
300.18
300.193
300.207
300.222
300.237
300.253
300.27
300.287
300.305
300.324
300.343
300.363
300.384
300.405
300.427
300.45
300.474
300.498
300.523
300.549
300.576
300.603
300.632
300.661
300.69
300.721
300.752
300.784
300.817
300.85
300.885
300.92
300.955
300.992
301.029
301.067
301.105
301.144
301.184
301.224
301.265
301.306
301.348
301.39
301.433
301.475
301.518
301.561
301.604
301.647
301.69
301.732
301.774
301.816
301.857
301.897
301.937
301.976
300.002
300.006
300.01
300.015
300.019
300.024
300.03
300.035
300.041
300.047
300.054
300.06
300.068
300.075
300.084
300.092
300.101
300.111
300.121
300.131
300.142
300.154
300.166
300.179
300.192
300.206
300.221
300.236
300.252
300.268
300.285
300.303
300.322
300.341
300.361
300.381
300.402
300.424
300.447
300.47
300.494
300.519
300.545
300.571
300.598
300.626
300.654
300.683
300.713
300.744
300.775
300.807
300.84
300.873
300.907
300.942
300.978
301.014
301.05
301.087
301.125
301.163
301.202
301.241
301.28
301.32
301.36
301.4
301.441
301.481
301.522
301.562
301.602
301.642
301.682
301.721
301.76
301.798
301.836
301.873
301.909
300.002
300.006
300.01
300.015
300.019
300.024
300.029
300.035
300.041
300.047
300.053
300.06
300.067
300.075
300.083
300.092
300.101
300.11
300.12
300.131
300.142
300.153
300.165
300.178
300.191
300.205
300.219
300.234
300.25
300.266
300.283
300.301
300.319
300.338
300.358
300.378
300.399
300.42
300.443
300.466
300.49
300.514
300.539
300.565
300.591
300.619
300.647
300.675
300.704
300.734
300.765
300.796
300.828
300.86
300.894
300.927
300.961
300.996
301.031
301.067
301.103
301.14
301.177
301.214
301.252
301.289
301.327
301.365
301.403
301.442
301.479
301.517
301.555
301.592
301.629
301.666
301.702
301.738
301.773
301.808
301.841
300.002
300.006
300.01
300.015
300.019
300.024
300.029
300.035
300.04
300.046
300.053
300.06
300.067
300.075
300.083
300.091
300.1
300.109
300.119
300.13
300.141
300.152
300.164
300.176
300.19
300.203
300.218
300.232
300.248
300.264
300.281
300.298
300.316
300.335
300.354
300.374
300.395
300.416
300.438
300.461
300.484
300.508
300.533
300.558
300.584
300.611
300.638
300.666
300.694
300.723
300.753
300.783
300.814
300.846
300.878
300.91
300.943
300.977
301.01
301.045
301.079
301.114
301.149
301.185
301.22
301.256
301.292
301.328
301.364
301.399
301.435
301.471
301.506
301.541
301.575
301.609
301.643
301.676
301.709
301.741
301.773
300.002
300.006
300.01
300.014
300.019
300.024
300.029
300.034
300.04
300.046
300.053
300.059
300.066
300.074
300.082
300.09
300.099
300.108
300.118
300.129
300.139
300.151
300.162
300.175
300.188
300.201
300.215
300.23
300.245
300.261
300.278
300.295
300.313
300.331
300.35
300.37
300.39
300.411
300.433
300.455
300.478
300.501
300.525
300.55
300.575
300.601
300.628
300.655
300.683
300.711
300.74
300.769
300.799
300.829
300.86
300.891
300.923
300.955
300.987
301.02
301.053
301.086
301.12
301.153
301.187
301.22
301.254
301.288
301.322
301.355
301.388
301.422
301.455
301.487
301.519
301.551
301.583
301.614
301.644
301.674
301.704
300.002
300.006
300.01
300.014
300.019
300.024
300.029
300.034
300.04
300.046
300.052
300.059
300.066
300.073
300.081
300.089
300.098
300.107
300.117
300.127
300.138
300.149
300.161
300.173
300.186
300.199
300.213
300.228
300.243
300.258
300.275
300.291
300.309
300.327
300.346
300.365
300.385
300.405
300.426
300.448
300.47
300.493
300.517
300.541
300.566
300.591
300.616
300.643
300.67
300.697
300.725
300.753
300.782
300.811
300.84
300.87
300.901
300.931
300.962
300.993
301.024
301.056
301.087
301.119
301.151
301.182
301.214
301.246
301.277
301.309
301.34
301.371
301.401
301.432
301.462
301.492
301.521
301.55
301.578
301.606
301.633
300.002
300.006
300.01
300.014
300.019
300.023
300.028
300.034
300.039
300.045
300.052
300.058
300.065
300.073
300.08
300.089
300.097
300.106
300.116
300.126
300.136
300.147
300.159
300.171
300.184
300.197
300.21
300.225
300.239
300.255
300.271
300.287
300.304
300.322
300.34
300.359
300.379
300.399
300.419
300.44
300.462
300.484
300.507
300.531
300.554
300.579
300.604
300.629
300.655
300.681
300.708
300.735
300.763
300.79
300.819
300.847
300.876
300.905
300.934
300.964
300.993
301.023
301.053
301.083
301.112
301.142
301.172
301.201
301.231
301.26
301.289
301.318
301.347
301.375
301.403
301.431
301.458
301.485
301.511
301.537
301.563
300.002
300.006
300.01
300.014
300.018
300.023
300.028
300.033
300.039
300.045
300.051
300.057
300.064
300.072
300.079
300.087
300.096
300.105
300.114
300.124
300.135
300.145
300.157
300.169
300.181
300.194
300.207
300.221
300.236
300.251
300.266
300.283
300.299
300.317
300.334
300.353
300.372
300.391
300.411
300.432
300.453
300.474
300.496
300.519
300.542
300.565
300.589
300.614
300.639
300.664
300.689
300.715
300.742
300.768
300.795
300.822
300.849
300.877
300.905
300.932
300.96
300.988
301.016
301.044
301.072
301.1
301.128
301.155
301.183
301.21
301.237
301.264
301.29
301.317
301.343
301.368
301.394
301.419
301.443
301.467
301.491
300.002
300.006
300.01
300.014
300.018
300.023
300.028
300.033
300.038
300.044
300.05
300.057
300.063
300.071
300.078
300.086
300.095
300.103
300.113
300.122
300.132
300.143
300.154
300.166
300.178
300.191
300.204
300.217
300.231
300.246
300.261
300.277
300.293
300.31
300.328
300.345
300.364
300.383
300.402
300.422
300.442
300.463
300.484
300.506
300.528
300.551
300.574
300.597
300.621
300.645
300.669
300.694
300.719
300.744
300.769
300.795
300.821
300.847
300.873
300.899
300.925
300.951
300.977
301.003
301.03
301.056
301.081
301.107
301.133
301.158
301.183
301.208
301.233
301.257
301.281
301.305
301.328
301.352
301.374
301.397
301.419
300.002
300.006
300.01
300.014
300.018
300.023
300.027
300.032
300.038
300.043
300.049
300.056
300.062
300.069
300.077
300.085
300.093
300.102
300.111
300.12
300.13
300.14
300.151
300.163
300.174
300.187
300.2
300.213
300.227
300.241
300.256
300.271
300.287
300.303
300.32
300.337
300.355
300.373
300.392
300.411
300.43
300.45
300.471
300.492
300.513
300.534
300.556
300.579
300.601
300.624
300.647
300.67
300.694
300.718
300.742
300.766
300.79
300.814
300.839
300.863
300.888
300.912
300.937
300.961
300.985
301.01
301.034
301.057
301.081
301.105
301.128
301.151
301.174
301.196
301.219
301.241
301.262
301.284
301.305
301.326
301.346
300.002
300.005
300.009
300.013
300.018
300.022
300.027
300.032
300.037
300.043
300.049
300.055
300.061
300.068
300.075
300.083
300.091
300.1
300.108
300.118
300.127
300.137
300.148
300.159
300.171
300.183
300.195
300.208
300.221
300.235
300.249
300.264
300.279
300.295
300.311
300.328
300.345
300.362
300.38
300.399
300.417
300.437
300.456
300.476
300.496
300.517
300.537
300.558
300.58
300.601
300.623
300.645
300.667
300.69
300.712
300.735
300.758
300.78
300.803
300.826
300.849
300.872
300.894
300.917
300.939
300.962
300.984
301.006
301.028
301.05
301.072
301.093
301.114
301.135
301.155
301.176
301.196
301.216
301.235
301.254
301.273
300.002
300.005
300.009
300.013
300.017
300.022
300.026
300.031
300.036
300.042
300.048
300.054
300.06
300.067
300.074
300.081
300.089
300.097
300.106
300.115
300.124
300.134
300.144
300.155
300.166
300.178
300.19
300.202
300.215
300.229
300.242
300.257
300.271
300.286
300.302
300.318
300.334
300.351
300.368
300.385
300.403
300.421
300.44
300.459
300.478
300.497
300.517
300.537
300.557
300.577
300.598
300.618
300.639
300.66
300.681
300.702
300.724
300.745
300.766
300.787
300.808
300.829
300.85
300.871
300.892
300.913
300.934
300.954
300.974
300.994
301.014
301.034
301.053
301.072
301.091
301.11
301.129
301.147
301.165
301.182
301.2
300.002
300.005
300.009
300.013
300.017
300.021
300.026
300.03
300.035
300.041
300.046
300.052
300.058
300.065
300.072
300.079
300.087
300.095
300.103
300.112
300.121
300.13
300.14
300.151
300.161
300.173
300.184
300.196
300.209
300.221
300.235
300.248
300.262
300.277
300.291
300.307
300.322
300.338
300.354
300.371
300.388
300.405
300.422
300.44
300.458
300.477
300.495
300.514
300.533
300.552
300.571
300.59
300.609
300.629
300.649
300.668
300.688
300.707
300.727
300.747
300.766
300.786
300.805
300.825
300.844
300.863
300.882
300.901
300.919
300.938
300.956
300.974
300.992
301.009
301.027
301.044
301.061
301.078
301.094
301.11
301.126
300.002
300.005
300.009
300.012
300.016
300.021
300.025
300.03
300.035
300.04
300.045
300.051
300.057
300.063
300.07
300.077
300.084
300.092
300.1
300.108
300.117
300.126
300.136
300.146
300.156
300.167
300.178
300.189
300.201
300.213
300.226
300.239
300.252
300.266
300.28
300.294
300.309
300.324
300.34
300.355
300.371
300.387
300.404
300.42
300.437
300.454
300.472
300.489
300.507
300.524
300.542
300.56
300.578
300.596
300.614
300.633
300.651
300.669
300.687
300.705
300.723
300.741
300.759
300.777
300.794
300.812
300.829
300.846
300.863
300.88
300.897
300.914
300.93
300.946
300.962
300.978
300.993
301.009
301.024
301.039
301.053
300.002
300.005
300.008
300.012
300.016
300.02
300.024
300.029
300.033
300.038
300.044
300.049
300.055
300.061
300.067
300.074
300.081
300.089
300.096
300.104
300.113
300.122
300.131
300.14
300.15
300.16
300.171
300.182
300.193
300.205
300.217
300.229
300.242
300.255
300.268
300.281
300.295
300.309
300.324
300.338
300.353
300.369
300.384
300.399
300.415
300.431
300.447
300.463
300.48
300.496
300.513
300.529
300.546
300.562
300.579
300.596
300.613
300.629
300.646
300.662
300.679
300.695
300.712
300.728
300.744
300.76
300.776
300.792
300.807
300.823
300.838
300.853
300.868
300.883
300.897
300.912
300.926
300.94
300.953
300.967
300.98
300.002
300.005
300.008
300.012
300.015
300.019
300.023
300.028
300.032
300.037
300.042
300.047
300.053
300.059
300.065
300.071
300.078
300.085
300.093
300.1
300.108
300.117
300.125
300.134
300.144
300.153
300.163
300.174
300.184
300.195
300.207
300.218
300.23
300.242
300.255
300.267
300.28
300.294
300.307
300.321
300.335
300.349
300.363
300.377
300.392
300.407
300.422
300.436
300.452
300.467
300.482
300.497
300.512
300.528
300.543
300.558
300.573
300.589
300.604
300.619
300.634
300.649
300.664
300.679
300.693
300.708
300.722
300.737
300.751
300.765
300.779
300.793
300.806
300.82
300.833
300.846
300.859
300.871
300.884
300.896
300.908
300.002
300.005
300.008
300.011
300.015
300.019
300.022
300.027
300.031
300.035
300.04
300.045
300.051
300.056
300.062
300.068
300.075
300.081
300.088
300.096
300.103
300.111
300.119
300.128
300.137
300.146
300.155
300.165
300.175
300.185
300.196
300.207
300.218
300.229
300.241
300.253
300.265
300.277
300.289
300.302
300.315
300.328
300.341
300.354
300.368
300.381
300.395
300.409
300.423
300.436
300.45
300.464
300.478
300.492
300.506
300.52
300.534
300.548
300.562
300.575
300.589
300.603
300.616
300.629
300.643
300.656
300.669
300.682
300.695
300.708
300.72
300.732
300.745
300.757
300.769
300.781
300.792
300.804
300.815
300.826
300.837
300.001
300.004
300.007
300.011
300.014
300.018
300.021
300.025
300.03
300.034
300.038
300.043
300.048
300.054
300.059
300.065
300.071
300.077
300.084
300.091
300.098
300.106
300.113
300.121
300.13
300.138
300.147
300.156
300.165
300.175
300.185
300.195
300.205
300.216
300.226
300.237
300.248
300.26
300.271
300.283
300.295
300.307
300.319
300.331
300.343
300.355
300.368
300.38
300.393
300.406
300.418
300.431
300.443
300.456
300.469
300.481
300.494
300.507
300.519
300.531
300.544
300.556
300.568
300.58
300.592
300.604
300.616
300.628
300.639
300.651
300.662
300.673
300.684
300.695
300.706
300.716
300.727
300.737
300.747
300.757
300.767
300.001
300.004
300.007
300.01
300.013
300.017
300.02
300.024
300.028
300.032
300.036
300.041
300.046
300.051
300.056
300.061
300.067
300.073
300.079
300.086
300.092
300.099
300.107
300.114
300.122
300.13
300.138
300.146
300.155
300.164
300.173
300.182
300.192
300.201
300.211
300.221
300.232
300.242
300.252
300.263
300.274
300.285
300.296
300.307
300.318
300.329
300.34
300.352
300.363
300.375
300.386
300.397
300.409
300.42
300.432
300.443
300.454
300.466
300.477
300.488
300.499
300.51
300.521
300.532
300.543
300.553
300.564
300.574
300.585
300.595
300.605
300.615
300.625
300.635
300.644
300.654
300.663
300.672
300.681
300.69
300.699
300.001
300.004
300.007
300.01
300.013
300.016
300.019
300.023
300.026
300.03
300.034
300.039
300.043
300.048
300.053
300.058
300.063
300.069
300.074
300.08
300.087
300.093
300.1
300.107
300.114
300.121
300.129
300.136
300.144
300.153
300.161
300.169
300.178
300.187
300.196
300.205
300.214
300.224
300.233
300.243
300.253
300.263
300.273
300.283
300.293
300.303
300.313
300.323
300.333
300.344
300.354
300.364
300.374
300.385
300.395
300.405
300.415
300.425
300.435
300.445
300.455
300.465
300.475
300.484
300.494
300.503
300.513
300.522
300.531
300.541
300.55
300.558
300.567
300.576
300.584
300.593
300.601
300.61
300.618
300.626
300.633
300.001
300.004
300.006
300.009
300.012
300.015
300.018
300.021
300.025
300.028
300.032
300.036
300.04
300.045
300.049
300.054
300.059
300.064
300.069
300.075
300.081
300.087
300.093
300.099
300.106
300.112
300.119
300.126
300.134
300.141
300.149
300.156
300.164
300.172
300.181
300.189
300.197
300.206
300.214
300.223
300.232
300.241
300.25
300.259
300.268
300.277
300.286
300.295
300.304
300.313
300.323
300.332
300.341
300.35
300.359
300.368
300.377
300.386
300.395
300.404
300.413
300.421
300.43
300.439
300.447
300.455
300.464
300.472
300.48
300.488
300.496
300.504
300.512
300.52
300.527
300.535
300.542
300.549
300.557
300.564
300.571
300.001
300.003
300.006
300.008
300.011
300.014
300.017
300.02
300.023
300.026
300.03
300.034
300.038
300.042
300.046
300.05
300.055
300.06
300.064
300.07
300.075
300.08
300.086
300.092
300.098
300.104
300.11
300.116
300.123
300.13
300.137
300.144
300.151
300.158
300.165
300.173
300.18
300.188
300.196
300.204
300.212
300.219
300.227
300.235
300.244
300.252
300.26
300.268
300.276
300.284
300.292
300.3
300.308
300.317
300.325
300.333
300.341
300.349
300.356
300.364
300.372
300.38
300.387
300.395
300.403
300.41
300.417
300.425
300.432
300.439
300.446
300.453
300.46
300.467
300.473
300.48
300.486
300.493
300.499
300.505
300.512
300.001
300.003
300.005
300.008
300.01
300.013
300.016
300.019
300.021
300.025
300.028
300.031
300.035
300.039
300.042
300.046
300.051
300.055
300.059
300.064
300.069
300.074
300.079
300.084
300.09
300.095
300.101
300.107
300.113
300.119
300.125
300.131
300.138
300.144
300.151
300.158
300.164
300.171
300.178
300.185
300.192
300.199
300.206
300.213
300.221
300.228
300.235
300.242
300.249
300.257
300.264
300.271
300.278
300.285
300.292
300.299
300.306
300.313
300.32
300.327
300.334
300.341
300.348
300.354
300.361
300.368
300.374
300.38
300.387
300.393
300.399
300.405
300.411
300.417
300.423
300.429
300.435
300.44
300.446
300.451
300.457
300.001
300.003
300.005
300.007
300.01
300.012
300.015
300.017
300.02
300.023
300.026
300.029
300.032
300.036
300.039
300.043
300.047
300.051
300.055
300.059
300.063
300.068
300.073
300.077
300.082
300.087
300.093
300.098
300.103
300.109
300.114
300.12
300.126
300.131
300.137
300.143
300.149
300.156
300.162
300.168
300.174
300.18
300.187
300.193
300.199
300.206
300.212
300.219
300.225
300.231
300.238
300.244
300.25
300.257
300.263
300.269
300.275
300.282
300.288
300.294
300.3
300.306
300.312
300.318
300.323
300.329
300.335
300.34
300.346
300.352
300.357
300.362
300.368
300.373
300.378
300.383
300.388
300.393
300.398
300.403
300.408
300.001
300.003
300.005
300.007
300.009
300.011
300.013
300.016
300.018
300.021
300.024
300.027
300.03
300.033
300.036
300.04
300.043
300.047
300.051
300.054
300.058
300.063
300.067
300.071
300.076
300.08
300.085
300.09
300.094
300.099
300.104
300.11
300.115
300.12
300.125
300.131
300.136
300.142
300.147
300.153
300.158
300.164
300.169
300.175
300.181
300.186
300.192
300.198
300.203
300.209
300.215
300.22
300.226
300.232
300.237
300.243
300.248
300.254
300.259
300.264
300.27
300.275
300.28
300.285
300.291
300.296
300.301
300.306
300.311
300.315
300.32
300.325
300.33
300.334
300.339
300.343
300.348
300.352
300.356
300.361
300.365
300.001
300.003
300.004
300.006
300.008
300.01
300.013
300.015
300.017
300.02
300.022
300.025
300.028
300.031
300.034
300.037
300.04
300.044
300.047
300.051
300.054
300.058
300.062
300.066
300.07
300.074
300.078
300.083
300.087
300.092
300.096
300.101
300.106
300.11
300.115
300.12
300.125
300.13
300.135
300.14
300.145
300.15
300.155
300.16
300.165
300.17
300.176
300.181
300.186
300.191
300.196
300.201
300.206
300.211
300.216
300.221
300.226
300.231
300.236
300.24
300.245
300.25
300.255
300.259
300.264
300.268
300.273
300.277
300.282
300.286
300.29
300.294
300.299
300.303
300.307
300.311
300.315
300.319
300.323
300.326
300.33
300.001
300.002
300.004
300.006
300.008
300.01
300.012
300.014
300.016
300.019
300.021
300.024
300.026
300.029
300.032
300.035
300.038
300.041
300.044
300.048
300.051
300.055
300.058
300.062
300.066
300.07
300.074
300.078
300.082
300.086
300.09
300.095
300.099
300.103
300.108
300.112
300.117
300.121
300.126
300.131
300.135
300.14
300.145
300.149
300.154
300.159
300.163
300.168
300.173
300.177
300.182
300.187
300.191
300.196
300.2
300.205
300.209
300.214
300.218
300.223
300.227
300.231
300.236
300.24
300.244
300.248
300.252
300.256
300.26
300.264
300.268
300.272
300.276
300.28
300.284
300.287
300.291
300.294
300.298
300.301
300.305
300.001
300.002
300.004
300.006
300.008
300.01
300.012
300.014
300.016
300.018
300.02
300.023
300.025
300.028
300.031
300.034
300.037
300.04
300.043
300.046
300.049
300.053
300.056
300.06
300.063
300.067
300.071
300.075
300.079
300.083
300.087
300.091
300.095
300.099
300.104
300.108
300.112
300.117
300.121
300.125
300.13
300.134
300.139
300.143
300.148
300.152
300.157
300.161
300.166
300.17
300.174
300.179
300.183
300.188
300.192
300.196
300.2
300.205
300.209
300.213
300.217
300.221
300.225
300.229
300.233
300.237
300.241
300.245
300.249
300.253
300.256
300.26
300.264
300.267
300.271
300.274
300.278
300.281
300.284
300.288
300.291
302.945
303.072
303.149
303.22
303.283
303.334
303.368
303.407
303.446
303.482
303.512
303.546
303.58
303.613
303.645
303.677
303.707
303.734
303.762
303.791
303.818
303.846
303.874
303.902
303.929
303.956
303.982
304.009
304.034
304.059
304.085
304.109
304.133
304.158
304.181
304.204
304.228
304.251
304.273
304.295
304.317
304.338
304.361
304.384
304.407
304.429
304.449
304.47
304.493
304.514
304.535
304.553
304.573
304.594
304.614
304.635
304.656
304.676
304.696
304.715
304.731
304.748
304.766
304.785
304.803
304.821
304.839
304.856
304.874
304.891
304.907
304.924
304.939
304.955
304.971
304.986
305.001
305.016
305.029
305.045
305.062
305.077
305.091
305.104
305.116
305.127
305.141
305.155
305.168
305.179
305.19
305.201
305.214
305.225
305.236
305.249
305.26
305.269
305.28
305.289
305.298
305.307
305.315
305.323
305.332
305.341
305.349
305.355
305.362
305.368
305.374
305.381
305.388
305.394
305.399
305.403
305.408
305.413
305.417
305.421
305.423
305.426
305.428
305.43
305.432
305.433
305.433
305.433
305.432
305.43
305.428
305.425
305.421
305.416
305.41
305.404
305.396
305.386
305.376
305.365
305.352
305.337
305.321
305.304
305.284
305.263
305.239
305.213
305.183
305.149
305.108
305.066
305.025
304.977
304.924
304.863
304.797
304.684
304.58
304.448
304.273
302.844
302.957
303.044
303.118
303.183
303.237
303.282
303.325
303.366
303.404
303.44
303.475
303.51
303.544
303.578
303.61
303.641
303.67
303.7
303.729
303.757
303.786
303.815
303.843
303.87
303.898
303.925
303.951
303.977
304.003
304.028
304.054
304.078
304.103
304.127
304.15
304.174
304.197
304.22
304.243
304.265
304.287
304.31
304.333
304.356
304.378
304.399
304.42
304.442
304.464
304.484
304.504
304.524
304.545
304.565
304.586
304.607
304.627
304.647
304.666
304.683
304.701
304.719
304.737
304.756
304.774
304.792
304.809
304.827
304.844
304.861
304.877
304.893
304.909
304.925
304.94
304.955
304.97
304.985
305
305.016
305.031
305.045
305.058
305.071
305.083
305.096
305.11
305.123
305.135
305.146
305.158
305.17
305.181
305.193
305.205
305.216
305.226
305.236
305.246
305.254
305.264
305.272
305.281
305.289
305.298
305.306
305.313
305.32
305.326
305.332
305.339
305.345
305.352
305.357
305.361
305.366
305.371
305.375
305.378
305.381
305.384
305.386
305.388
305.39
305.391
305.391
305.391
305.39
305.389
305.386
305.383
305.379
305.374
305.369
305.362
305.354
305.345
305.334
305.323
305.31
305.295
305.279
305.262
305.242
305.221
305.197
305.17
305.14
305.106
305.066
305.024
304.981
304.932
304.878
304.815
304.744
304.635
304.526
304.387
304.195
302.763
302.861
302.946
303.021
303.086
303.143
303.194
303.24
303.284
303.325
303.363
303.4
303.437
303.472
303.506
303.54
303.572
303.603
303.633
303.663
303.693
303.722
303.751
303.78
303.808
303.836
303.863
303.89
303.917
303.943
303.969
303.994
304.019
304.044
304.069
304.093
304.117
304.14
304.164
304.187
304.209
304.232
304.255
304.278
304.301