/*--------------------------------*- C++ -*----------------------------------*\
| =========                 |                                                 |
| \\      /  F ield         | OpenFOAM: The Open Source CFD Toolbox           |
|  \\    /   O peration     | Version:  2106                                  |
|   \\  /    A nd           | Website:  www.openfoam.com                      |
|    \\/     M anipulation  |                                                 |
\*---------------------------------------------------------------------------*/
FoamFile
{
    version     2.0;
    format      ascii;
    arch        "LSB;label=32;scalar=64";
    class       volVectorField;
    location    "2.8";
    object      U;
}
// * * * * * * * * * * * * * * * * * * * * * * * * * * * * * * * * * * * * * //

dimensions      [0 1 -1 0 0 0 0];

internalField   nonuniform List<vector> 
12013
(
(0.100024 -6.77861e-06 0)
(0.100124 -1.25306e-05 0)
(0.100285 -1.77967e-05 0)
(0.100492 -2.2574e-05 0)
(0.10074 -2.69904e-05 0)
(0.101025 -3.11214e-05 0)
(0.101343 -3.50155e-05 0)
(0.10169 -3.87124e-05 0)
(0.102063 -4.22406e-05 0)
(0.10246 -4.56238e-05 0)
(0.102879 -4.88781e-05 0)
(0.103317 -5.20161e-05 0)
(0.103772 -5.5048e-05 0)
(0.104244 -5.79789e-05 0)
(0.104729 -6.08139e-05 0)
(0.105228 -6.35569e-05 0)
(0.105738 -6.6211e-05 0)
(0.106258 -6.87796e-05 0)
(0.106786 -7.12684e-05 0)
(0.107323 -7.36831e-05 0)
(0.107866 -7.60323e-05 0)
(0.108415 -7.83248e-05 0)
(0.10897 -8.05723e-05 0)
(0.109528 -8.2786e-05 0)
(0.110091 -8.49779e-05 0)
(0.110657 -8.716e-05 0)
(0.111226 -8.93433e-05 0)
(0.111797 -9.15373e-05 0)
(0.112371 -9.37493e-05 0)
(0.112948 -9.59848e-05 0)
(0.113526 -9.82465e-05 0)
(0.114107 -0.000100535 0)
(0.11469 -0.000102846 0)
(0.115274 -0.000105176 0)
(0.11586 -0.000107516 0)
(0.116447 -0.000109855 0)
(0.117035 -0.00011218 0)
(0.117624 -0.000114476 0)
(0.118213 -0.000116727 0)
(0.118801 -0.000118912 0)
(0.119389 -0.000121011 0)
(0.119976 -0.000123001 0)
(0.12056 -0.000124856 0)
(0.121141 -0.00012655 0)
(0.121719 -0.000128052 0)
(0.122292 -0.000129331 0)
(0.122858 -0.000130351 0)
(0.123418 -0.000131073 0)
(0.12397 -0.000131454 0)
(0.124513 -0.000131446 0)
(0.125044 -0.000130995 0)
(0.125563 -0.000130039 0)
(0.126068 -0.000128507 0)
(0.126557 -0.00012632 0)
(0.127028 -0.000123382 0)
(0.127478 -0.000119585 0)
(0.127906 -0.0001148 0)
(0.128308 -0.000108874 0)
(0.128681 -0.000101624 0)
(0.129021 -9.28288e-05 0)
(0.129325 -8.22204e-05 0)
(0.129588 -6.94687e-05 0)
(0.129803 -5.41634e-05 0)
(0.129965 -3.57912e-05 0)
(0.130066 -1.36994e-05 0)
(0.130096 1.29562e-05 0)
(0.130044 4.53055e-05 0)
(0.129895 8.4862e-05 0)
(0.129633 0.000133681 0)
(0.129234 0.000194628 0)
(0.128667 0.000271788 0)
(0.127894 0.000371149 0)
(0.12686 0.000501726 0)
(0.125487 0.000677508 0)
(0.123666 0.000920879 0)
(0.121232 0.00126878 0)
(0.117937 0.00178416 0)
(0.113372 0.00258039 0)
(0.10687 0.00389595 0)
(0.0975589 0.00641499 0)
(0.0869258 0.0132775 0)
(0.100023 -2.07072e-05 0)
(0.100122 -3.8427e-05 0)
(0.100282 -5.46012e-05 0)
(0.100488 -6.92631e-05 0)
(0.100736 -8.28186e-05 0)
(0.101021 -9.54962e-05 0)
(0.101338 -0.000107446 0)
(0.101685 -0.000118789 0)
(0.102057 -0.000129615 0)
(0.102454 -0.000139993 0)
(0.102872 -0.000149976 0)
(0.103309 -0.000159603 0)
(0.103764 -0.000168902 0)
(0.104234 -0.000177891 0)
(0.104719 -0.000186586 0)
(0.105217 -0.000194997 0)
(0.105726 -0.000203135 0)
(0.106245 -0.000211011 0)
(0.106772 -0.00021864 0)
(0.107308 -0.000226042 0)
(0.10785 -0.000233242 0)
(0.108398 -0.000240267 0)
(0.108951 -0.000247154 0)
(0.109508 -0.000253936 0)
(0.11007 -0.00026065 0)
(0.110634 -0.000267334 0)
(0.111202 -0.00027402 0)
(0.111772 -0.000280738 0)
(0.112344 -0.000287511 0)
(0.112919 -0.000294355 0)
(0.113496 -0.000301279 0)
(0.114075 -0.000308283 0)
(0.114656 -0.000315358 0)
(0.115238 -0.000322487 0)
(0.115822 -0.000329647 0)
(0.116407 -0.000336804 0)
(0.116993 -0.000343918 0)
(0.117579 -0.000350943 0)
(0.118166 -0.000357826 0)
(0.118752 -0.000364509 0)
(0.119338 -0.000370926 0)
(0.119922 -0.000377007 0)
(0.120503 -0.000382675 0)
(0.121082 -0.000387847 0)
(0.121657 -0.000392433 0)
(0.122227 -0.000396332 0)
(0.122791 -0.000399439 0)
(0.123348 -0.000401632 0)
(0.123897 -0.000402781 0)
(0.124437 -0.000402737 0)
(0.124965 -0.000401336 0)
(0.125481 -0.000398389 0)
(0.125983 -0.000393681 0)
(0.126469 -0.000386967 0)
(0.126937 -0.00037796 0)
(0.127385 -0.000366326 0)
(0.12781 -0.000351674 0)
(0.12821 -0.000333539 0)
(0.128581 -0.000311364 0)
(0.128919 -0.000284481 0)
(0.129222 -0.000252075 0)
(0.129484 -0.000213148 0)
(0.129699 -0.00016646 0)
(0.129863 -0.000110464 0)
(0.129966 -4.31976e-05 0)
(0.130001 3.78666e-05 0)
(0.129956 0.000136071 0)
(0.129819 0.000255877 0)
(0.129573 0.00040331 0)
(0.129198 0.000586687 0)
(0.128667 0.000817742 0)
(0.127948 0.00111342 0)
(0.126994 0.00149876 0)
(0.125747 0.0020117 0)
(0.124126 0.00271103 0)
(0.122023 0.00368964 0)
(0.119295 0.00509569 0)
(0.115745 0.00716561 0)
(0.111141 0.0102756 0)
(0.105513 0.0149382 0)
(0.100741 0.0212596 0)
(0.100021 -3.5232e-05 0)
(0.100119 -6.59424e-05 0)
(0.100278 -9.37997e-05 0)
(0.100483 -0.000119043 0)
(0.10073 -0.000142375 0)
(0.101013 -0.000164192 0)
(0.101329 -0.000184752 0)
(0.101675 -0.000204264 0)
(0.102046 -0.000222884 0)
(0.102441 -0.000240733 0)
(0.102858 -0.000257899 0)
(0.103293 -0.000274451 0)
(0.103747 -0.000290435 0)
(0.104216 -0.000305886 0)
(0.104699 -0.000320828 0)
(0.105195 -0.00033528 0)
(0.105702 -0.00034926 0)
(0.106219 -0.000362787 0)
(0.106744 -0.000375887 0)
(0.107278 -0.000388595 0)
(0.107818 -0.000400952 0)
(0.108364 -0.000413008 0)
(0.108914 -0.00042482 0)
(0.109469 -0.00043645 0)
(0.110028 -0.000447962 0)
(0.110589 -0.000459417 0)
(0.111154 -0.000470874 0)
(0.111721 -0.000482382 0)
(0.11229 -0.000493983 0)
(0.112862 -0.000505702 0)
(0.113435 -0.000517556 0)
(0.114011 -0.000529544 0)
(0.114588 -0.000541652 0)
(0.115166 -0.000553851 0)
(0.115746 -0.000566099 0)
(0.116327 -0.000578339 0)
(0.116909 -0.000590503 0)
(0.117491 -0.000602511 0)
(0.118073 -0.000614273 0)
(0.118655 -0.000625687 0)
(0.119235 -0.000636642 0)
(0.119814 -0.000647017 0)
(0.12039 -0.000656679 0)
(0.120964 -0.000665487 0)
(0.121533 -0.000673284 0)
(0.122098 -0.000679903 0)
(0.122656 -0.000685157 0)
(0.123207 -0.000688842 0)
(0.123751 -0.000690734 0)
(0.124284 -0.000690581 0)
(0.124807 -0.000688099 0)
(0.125317 -0.000682969 0)
(0.125813 -0.000674825 0)
(0.126293 -0.00066325 0)
(0.126755 -0.000647759 0)
(0.127197 -0.000627787 0)
(0.127617 -0.000602671 0)
(0.128011 -0.000571629 0)
(0.128378 -0.000533726 0)
(0.128712 -0.00048784 0)
(0.129012 -0.000432611 0)
(0.129272 -0.000366376 0)
(0.129487 -0.000287085 0)
(0.129651 -0.00019218 0)
(0.129759 -7.84457e-05 0)
(0.129801 5.82234e-05 0)
(0.129768 0.000223186 0)
(0.12965 0.000423515 0)
(0.129432 0.000668639 0)
(0.129098 0.00097134 0)
(0.128628 0.00134925 0)
(0.127997 0.00182709 0)
(0.127175 0.00244015 0)
(0.126127 0.00323944 0)
(0.124812 0.00429949 0)
(0.123189 0.00572919 0)
(0.121226 0.00768462 0)
(0.118923 0.0103782 0)
(0.116372 0.0140667 0)
(0.113932 0.0189153 0)
(0.112636 0.0243159 0)
(0.100019 -5.02449e-05 0)
(0.100116 -9.50207e-05 0)
(0.100273 -0.000135365 0)
(0.100476 -0.000171943 0)
(0.100721 -0.000205736 0)
(0.101003 -0.00023732 0)
(0.101317 -0.000267078 0)
(0.10166 -0.000295311 0)
(0.10203 -0.000322248 0)
(0.102423 -0.000348062 0)
(0.102837 -0.000372884 0)
(0.103271 -0.000396811 0)
(0.103722 -0.000419914 0)
(0.104188 -0.00044224 0)
(0.104669 -0.000463825 0)
(0.105162 -0.000484697 0)
(0.105666 -0.000504881 0)
(0.10618 -0.000524406 0)
(0.106703 -0.000543309 0)
(0.107233 -0.000561638 0)
(0.10777 -0.000579454 0)
(0.108312 -0.000596829 0)
(0.108859 -0.000613846 0)
(0.10941 -0.000630593 0)
(0.109964 -0.000647163 0)
(0.110522 -0.000663644 0)
(0.111082 -0.000680122 0)
(0.111645 -0.000696667 0)
(0.112209 -0.000713338 0)
(0.112776 -0.000730175 0)
(0.113344 -0.0007472 0)
(0.113914 -0.000764412 0)
(0.114486 -0.000781792 0)
(0.115059 -0.000799296 0)
(0.115632 -0.000816865 0)
(0.116207 -0.000834416 0)
(0.116782 -0.00085185 0)
(0.117358 -0.000869054 0)
(0.117933 -0.000885895 0)
(0.118508 -0.000902227 0)
(0.119081 -0.00091789 0)
(0.119652 -0.000932709 0)
(0.120221 -0.000946494 0)
(0.120786 -0.000959039 0)
(0.121348 -0.000970121 0)
(0.121904 -0.000979496 0)
(0.122454 -0.000986899 0)
(0.122997 -0.000992038 0)
(0.123531 -0.000994589 0)
(0.124056 -0.000994193 0)
(0.12457 -0.000990446 0)
(0.125071 -0.000982891 0)
(0.125558 -0.00097101 0)
(0.12603 -0.00095421 0)
(0.126483 -0.000931804 0)
(0.126917 -0.000902996 0)
(0.127329 -0.000866855 0)
(0.127716 -0.000822281 0)
(0.128076 -0.00076797 0)
(0.128405 -0.000702363 0)
(0.1287 -0.000623577 0)
(0.128957 -0.000529325 0)
(0.129172 -0.000416804 0)
(0.129339 -0.000282546 0)
(0.129453 -0.000122224 0)
(0.129507 6.96039e-05 0)
(0.129493 0.000299921 0)
(0.129403 0.000577795 0)
(0.129226 0.000915081 0)
(0.128951 0.00132744 0)
(0.128565 0.00183582 0)
(0.128054 0.00246845 0)
(0.127404 0.00326373 0)
(0.126605 0.00427387 0)
(0.125651 0.00556949 0)
(0.124552 0.00724374 0)
(0.123348 0.00941258 0)
(0.122135 0.0122013 0)
(0.121097 0.0156955 0)
(0.120552 0.0197961 0)
(0.120937 0.0238447 0)
(0.100018 -6.57639e-05 0)
(0.100112 -0.000125628 0)
(0.100267 -0.000179293 0)
(0.100468 -0.000228001 0)
(0.10071 -0.000272979 0)
(0.100989 -0.000314997 0)
(0.101301 -0.000354571 0)
(0.101642 -0.000392105 0)
(0.102008 -0.000427904 0)
(0.102399 -0.000462201 0)
(0.10281 -0.000495169 0)
(0.103241 -0.000526939 0)
(0.103688 -0.000557604 0)
(0.104152 -0.000587229 0)
(0.104629 -0.000615861 0)
(0.105118 -0.000643537 0)
(0.105619 -0.000670291 0)
(0.106129 -0.00069616 0)
(0.106647 -0.000721193 0)
(0.107173 -0.000745456 0)
(0.107705 -0.000769026 0)
(0.108243 -0.000792 0)
(0.108785 -0.000814488 0)
(0.109331 -0.000836607 0)
(0.10988 -0.000858478 0)
(0.110432 -0.00088022 0)
(0.110986 -0.000901944 0)
(0.111543 -0.000923747 0)
(0.112101 -0.000945705 0)
(0.112661 -0.000967871 0)
(0.113223 -0.000990274 0)
(0.113786 -0.00101291 0)
(0.11435 -0.00103576 0)
(0.114915 -0.00105877 0)
(0.115481 -0.00108185 0)
(0.116047 -0.00110489 0)
(0.116614 -0.00112777 0)
(0.117181 -0.00115033 0)
(0.117747 -0.00117239 0)
(0.118312 -0.00119377 0)
(0.118876 -0.00121426 0)
(0.119437 -0.00123361 0)
(0.119996 -0.00125159 0)
(0.120551 -0.00126791 0)
(0.121101 -0.00128228 0)
(0.121647 -0.00129439 0)
(0.122186 -0.00130388 0)
(0.122717 -0.00131037 0)
(0.12324 -0.00131344 0)
(0.123754 -0.00131261 0)
(0.124256 -0.00130736 0)
(0.124746 -0.0012971 0)
(0.125222 -0.00128116 0)
(0.125682 -0.00125876 0)
(0.126125 -0.00122902 0)
(0.126548 -0.00119093 0)
(0.12695 -0.00114328 0)
(0.127328 -0.0010847 0)
(0.12768 -0.00101351 0)
(0.128003 -0.000927779 0)
(0.128293 -0.000825141 0)
(0.128548 -0.00070277 0)
(0.128763 -0.000557227 0)
(0.128935 -0.000384302 0)
(0.129059 -0.00017881 0)
(0.12913 6.56611e-05 0)
(0.129142 0.000357144 0)
(0.129089 0.000705849 0)
(0.128965 0.00112479 0)
(0.128764 0.0016306 0)
(0.128481 0.00224466 0)
(0.128113 0.00299445 0)
(0.127659 0.00391515 0)
(0.127126 0.00505124 0)
(0.126533 0.00645748 0)
(0.125919 0.00819759 0)
(0.125352 0.0103372 0)
(0.124943 0.0129237 0)
(0.124853 0.0159404 0)
(0.125285 0.0192162 0)
(0.126398 0.0222833 0)
(0.100016 -8.18043e-05 0)
(0.100109 -0.000157732 0)
(0.10026 -0.000225574 0)
(0.100458 -0.000287234 0)
(0.100698 -0.000344157 0)
(0.100973 -0.000397309 0)
(0.101282 -0.000447351 0)
(0.101619 -0.000494793 0)
(0.101983 -0.000540025 0)
(0.102369 -0.00058334 0)
(0.102777 -0.000624962 0)
(0.103204 -0.000665056 0)
(0.103647 -0.000703739 0)
(0.104106 -0.000741095 0)
(0.104579 -0.000777184 0)
(0.105064 -0.000812051 0)
(0.105559 -0.000845739 0)
(0.106064 -0.000878297 0)
(0.106578 -0.000909786 0)
(0.107098 -0.000940285 0)
(0.107625 -0.000969895 0)
(0.108156 -0.000998736 0)
(0.108692 -0.00102694 0)
(0.109232 -0.00105467 0)
(0.109774 -0.00108206 0)
(0.110319 -0.00110928 0)
(0.110866 -0.00113645 0)
(0.111415 -0.0011637 0)
(0.111966 -0.00119112 0)
(0.112518 -0.00121879 0)
(0.113071 -0.00124674 0)
(0.113625 -0.00127497 0)
(0.11418 -0.00130344 0)
(0.114736 -0.00133209 0)
(0.115292 -0.00136082 0)
(0.115848 -0.00138948 0)
(0.116404 -0.00141791 0)
(0.11696 -0.00144593 0)
(0.117515 -0.00147331 0)
(0.118068 -0.00149981 0)
(0.11862 -0.00152516 0)
(0.119169 -0.00154908 0)
(0.119715 -0.00157124 0)
(0.120258 -0.00159131 0)
(0.120795 -0.00160892 0)
(0.121327 -0.00162367 0)
(0.121853 -0.00163512 0)
(0.122371 -0.0016428 0)
(0.12288 -0.00164619 0)
(0.12338 -0.0016447 0)
(0.123868 -0.00163769 0)
(0.124344 -0.00162442 0)
(0.124807 -0.00160409 0)
(0.125253 -0.00157574 0)
(0.125683 -0.00153832 0)
(0.126095 -0.0014906 0)
(0.126485 -0.00143114 0)
(0.126853 -0.00135829 0)
(0.127196 -0.0012701 0)
(0.127512 -0.00116428 0)
(0.127798 -0.00103809 0)
(0.128051 -0.000888297 0)
(0.128269 -0.000710988 0)
(0.128448 -0.000501459 0)
(0.128586 -0.000254005 0)
(0.128678 3.82978e-05 0)
(0.128722 0.00038383 0)
(0.128715 0.000792988 0)
(0.128654 0.0012786 0)
(0.128539 0.00185646 0)
(0.12837 0.00254587 0)
(0.128153 0.00337027 0)
(0.127897 0.00435762 0)
(0.127619 0.00554028 0)
(0.127351 0.00695367 0)
(0.127137 0.00863252 0)
(0.127047 0.0106024 0)
(0.127172 0.0128635 0)
(0.127622 0.0153616 0)
(0.128507 0.0179463 0)
(0.129869 0.0203295 0)
(0.100014 -9.83793e-05 0)
(0.100105 -0.000191306 0)
(0.100253 -0.000274197 0)
(0.100448 -0.000349646 0)
(0.100683 -0.000419302 0)
(0.100956 -0.000484318 0)
(0.10126 -0.000545505 0)
(0.101593 -0.000603489 0)
(0.101952 -0.000658746 0)
(0.102335 -0.000711637 0)
(0.102738 -0.000762437 0)
(0.10316 -0.000811347 0)
(0.103598 -0.000858513 0)
(0.104052 -0.000904039 0)
(0.10452 -0.000947997 0)
(0.104999 -0.000990445 0)
(0.105489 -0.00103143 0)
(0.105988 -0.00107102 0)
(0.106495 -0.00110928 0)
(0.107008 -0.00114631 0)
(0.107528 -0.00118223 0)
(0.108052 -0.00121719 0)
(0.108581 -0.00125135 0)
(0.109113 -0.0012849 0)
(0.109647 -0.00131801 0)
(0.110184 -0.00135087 0)
(0.110723 -0.00138365 0)
(0.111263 -0.0014165 0)
(0.111804 -0.00144954 0)
(0.112346 -0.00148284 0)
(0.112889 -0.00151645 0)
(0.113433 -0.00155038 0)
(0.113977 -0.00158458 0)
(0.114521 -0.00161896 0)
(0.115066 -0.00165341 0)
(0.11561 -0.00168776 0)
(0.116153 -0.0017218 0)
(0.116696 -0.00175531 0)
(0.117238 -0.00178803 0)
(0.117778 -0.00181964 0)
(0.118316 -0.00184984 0)
(0.11885 -0.00187827 0)
(0.119382 -0.00190455 0)
(0.119909 -0.00192827 0)
(0.120431 -0.00194899 0)
(0.120948 -0.00196623 0)
(0.121458 -0.00197946 0)
(0.12196 -0.00198813 0)
(0.122453 -0.0019916 0)
(0.122937 -0.00198919 0)
(0.123409 -0.00198013 0)
(0.12387 -0.00196357 0)
(0.124316 -0.00193855 0)
(0.124748 -0.00190399 0)
(0.125164 -0.00185864 0)
(0.125562 -0.00180111 0)
(0.12594 -0.00172976 0)
(0.126297 -0.00164272 0)
(0.126631 -0.00153781 0)
(0.126939 -0.00141249 0)
(0.127221 -0.00126379 0)
(0.127474 -0.00108818 0)
(0.127697 -0.000881541 0)
(0.127886 -0.000638946 0)
(0.128041 -0.000354564 0)
(0.12816 -2.14758e-05 0)
(0.128241 0.00036839 0)
(0.128285 0.000824682 0)
(0.128293 0.0013589 0)
(0.128268 0.00198455 0)
(0.128216 0.00271721 0)
(0.128145 0.00357455 0)
(0.128072 0.00457586 0)
(0.128018 0.00574103 0)
(0.128014 0.00708836 0)
(0.128104 0.00863072 0)
(0.128341 0.0103689 0)
(0.128789 0.0122816 0)
(0.129514 0.0143112 0)
(0.130568 0.0163485 0)
(0.13195 0.0182266 0)
(0.100012 -0.000115506 0)
(0.100101 -0.000226332 0)
(0.100246 -0.000325149 0)
(0.100437 -0.000415232 0)
(0.100668 -0.000498428 0)
(0.100936 -0.000576061 0)
(0.101236 -0.000649097 0)
(0.101564 -0.000718277 0)
(0.101918 -0.000784171 0)
(0.102295 -0.000847211 0)
(0.102693 -0.000907725 0)
(0.103109 -0.000965956 0)
(0.103542 -0.00102208 0)
(0.10399 -0.00107622 0)
(0.104451 -0.00112846 0)
(0.104923 -0.00117887 0)
(0.105406 -0.00122752 0)
(0.105898 -0.00127447 0)
(0.106398 -0.00131981 0)
(0.106904 -0.00136365 0)
(0.107415 -0.00140614 0)
(0.107931 -0.00144745 0)
(0.108451 -0.00148777 0)
(0.108974 -0.00152732 0)
(0.109499 -0.00156631 0)
(0.110027 -0.00160497 0)
(0.110555 -0.00164349 0)
(0.111085 -0.00168205 0)
(0.111615 -0.00172079 0)
(0.112146 -0.00175981 0)
(0.112678 -0.00179915 0)
(0.113209 -0.00183883 0)
(0.113741 -0.00187879 0)
(0.114272 -0.00191894 0)
(0.114803 -0.00195912 0)
(0.115333 -0.00199915 0)
(0.115863 -0.00203879 0)
(0.116391 -0.00207776 0)
(0.116917 -0.00211574 0)
(0.117442 -0.0021524 0)
(0.117963 -0.00218735 0)
(0.118482 -0.00222018 0)
(0.118996 -0.00225043 0)
(0.119507 -0.00227764 0)
(0.120012 -0.00230128 0)
(0.12051 -0.0023208 0)
(0.121002 -0.00233558 0)
(0.121487 -0.00234497 0)
(0.121962 -0.00234826 0)
(0.122428 -0.00234466 0)
(0.122883 -0.00233329 0)
(0.123326 -0.00231318 0)
(0.123756 -0.00228326 0)
(0.124171 -0.00224231 0)
(0.124572 -0.00218897 0)
(0.124955 -0.00212167 0)
(0.12532 -0.00203864 0)
(0.125665 -0.00193788 0)
(0.12599 -0.00181705 0)
(0.126292 -0.00167347 0)
(0.126571 -0.00150407 0)
(0.126826 -0.00130526 0)
(0.127054 -0.0010729 0)
(0.127256 -0.000802184 0)
(0.127431 -0.000487541 0)
(0.127579 -0.000122559 0)
(0.127701 0.000300008 0)
(0.127799 0.000788329 0)
(0.127876 0.00135178 0)
(0.127939 0.00200074 0)
(0.127996 0.00274644 0)
(0.128058 0.00360044 0)
(0.128141 0.00457396 0)
(0.128268 0.00567654 0)
(0.128465 0.00691407 0)
(0.128766 0.00828588 0)
(0.129208 0.00978069 0)
(0.129831 0.0113716 0)
(0.130672 0.0130105 0)
(0.131749 0.0146249 0)
(0.133051 0.0161204 0)
(0.100011 -0.000133207 0)
(0.100098 -0.000262797 0)
(0.100239 -0.000378418 0)
(0.100425 -0.00048398 0)
(0.100652 -0.000581532 0)
(0.100914 -0.000672552 0)
(0.101209 -0.000758155 0)
(0.101532 -0.000839203 0)
(0.10188 -0.000916362 0)
(0.102251 -0.000990137 0)
(0.102643 -0.00106091 0)
(0.103052 -0.00112898 0)
(0.103478 -0.00119453 0)
(0.103919 -0.00125773 0)
(0.104373 -0.00131867 0)
(0.104838 -0.00137744 0)
(0.105313 -0.00143409 0)
(0.105796 -0.00148873 0)
(0.106287 -0.00154144 0)
(0.106784 -0.00159235 0)
(0.107287 -0.00164165 0)
(0.107793 -0.00168951 0)
(0.108303 -0.00173617 0)
(0.108816 -0.00178188 0)
(0.109331 -0.00182689 0)
(0.109847 -0.00187145 0)
(0.110364 -0.00191579 0)
(0.110882 -0.00196013 0)
(0.1114 -0.00200461 0)
(0.111918 -0.00204937 0)
(0.112437 -0.00209445 0)
(0.112955 -0.00213987 0)
(0.113472 -0.00218557 0)
(0.113989 -0.00223143 0)
(0.114505 -0.00227729 0)
(0.115019 -0.00232292 0)
(0.115533 -0.00236805 0)
(0.116044 -0.00241236 0)
(0.116554 -0.00245549 0)
(0.117061 -0.00249704 0)
(0.117564 -0.00253657 0)
(0.118065 -0.00257359 0)
(0.118561 -0.00260762 0)
(0.119052 -0.00263808 0)
(0.119538 -0.00266439 0)
(0.120017 -0.00268591 0)
(0.12049 -0.00270197 0)
(0.120955 -0.00271182 0)
(0.121411 -0.00271465 0)
(0.121857 -0.00270959 0)
(0.122293 -0.00269568 0)
(0.122717 -0.00267185 0)
(0.123129 -0.00263691 0)
(0.123527 -0.00258957 0)
(0.123911 -0.00252836 0)
(0.124279 -0.00245162 0)
(0.124631 -0.0023575 0)
(0.124965 -0.00224393 0)
(0.125281 -0.00210852 0)
(0.125577 -0.0019486 0)
(0.125854 -0.00176113 0)
(0.126111 -0.00154265 0)
(0.126347 -0.00128926 0)
(0.126562 -0.000996554 0)
(0.126759 -0.00065956 0)
(0.126937 -0.000272754 0)
(0.1271 0.000169918 0)
(0.12725 0.000674737 0)
(0.127394 0.00124856 0)
(0.127537 0.00189849 0)
(0.127689 0.00263149 0)
(0.127862 0.00345385 0)
(0.128071 0.00437036 0)
(0.128333 0.00538328 0)
(0.12867 0.0064909 0)
(0.129105 0.00768582 0)
(0.129663 0.00895289 0)
(0.130365 0.0102673 0)
(0.131229 0.0115932 0)
(0.13226 0.0128841 0)
(0.133445 0.0140873 0)
(0.100009 -0.000151502 0)
(0.100094 -0.000300689 0)
(0.100231 -0.000433986 0)
(0.100413 -0.000555868 0)
(0.100634 -0.000668593 0)
(0.100891 -0.000773776 0)
(0.10118 -0.000872675 0)
(0.101497 -0.000966274 0)
(0.101838 -0.00105533 0)
(0.102203 -0.00114044 0)
(0.102587 -0.00122203 0)
(0.102989 -0.00130044 0)
(0.103407 -0.00137591 0)
(0.10384 -0.00144861 0)
(0.104285 -0.00151866 0)
(0.104741 -0.00158614 0)
(0.105207 -0.00165115 0)
(0.105682 -0.00171378 0)
(0.106163 -0.00177414 0)
(0.10665 -0.00183238 0)
(0.107142 -0.00188869 0)
(0.107638 -0.00194329 0)
(0.108137 -0.00199644 0)
(0.108638 -0.00204843 0)
(0.109141 -0.00209954 0)
(0.109645 -0.00215006 0)
(0.110149 -0.00220026 0)
(0.110654 -0.00225038 0)
(0.111158 -0.00230059 0)
(0.111663 -0.00235105 0)
(0.112166 -0.00240181 0)
(0.112669 -0.00245289 0)
(0.113171 -0.00250422 0)
(0.113672 -0.00255568 0)
(0.114171 -0.00260707 0)
(0.114668 -0.00265815 0)
(0.115164 -0.0027086 0)
(0.115657 -0.00275805 0)
(0.116148 -0.00280611 0)
(0.116636 -0.00285231 0)
(0.11712 -0.00289617 0)
(0.117601 -0.00293713 0)
(0.118077 -0.00297463 0)
(0.118547 -0.00300805 0)
(0.119012 -0.00303673 0)
(0.119471 -0.00305996 0)
(0.119923 -0.00307699 0)
(0.120366 -0.00308701 0)
(0.120801 -0.00308912 0)
(0.121227 -0.00308239 0)
(0.121643 -0.00306577 0)
(0.122047 -0.00303812 0)
(0.12244 -0.00299821 0)
(0.12282 -0.00294467 0)
(0.123187 -0.00287597 0)
(0.12354 -0.00279043 0)
(0.123878 -0.0026862 0)
(0.124201 -0.0025612 0)
(0.124508 -0.00241312 0)
(0.124799 -0.00223942 0)
(0.125075 -0.00203723 0)
(0.125334 -0.00180342 0)
(0.125578 -0.00153453 0)
(0.125809 -0.00122675 0)
(0.126026 -0.000875993 0)
(0.126234 -0.000477848 0)
(0.126435 -2.76715e-05 0)
(0.126633 0.000478997 0)
(0.126835 0.00104641 0)
(0.127046 0.00167869 0)
(0.127276 0.00237925 0)
(0.127535 0.00315033 0)
(0.127836 0.00399232 0)
(0.128192 0.00490312 0)
(0.128618 0.00587724 0)
(0.129129 0.00690499 0)
(0.129739 0.00797171 0)
(0.13046 0.00905735 0)
(0.131299 0.0101366 0)
(0.132254 0.0111805 0)
(0.133314 0.012159 0)
(0.100007 -0.000170406 0)
(0.10009 -0.000339992 0)
(0.100224 -0.000491825 0)
(0.1004 -0.000630857 0)
(0.100616 -0.000759565 0)
(0.100867 -0.000879686 0)
(0.101149 -0.000992612 0)
(0.101459 -0.00109945 0)
(0.101793 -0.00120105 0)
(0.10215 -0.00129808 0)
(0.102526 -0.00139104 0)
(0.10292 -0.00148031 0)
(0.103329 -0.00156616 0)
(0.103753 -0.0016488 0)
(0.104188 -0.00172835 0)
(0.104635 -0.00180492 0)
(0.105091 -0.00187861 0)
(0.105554 -0.00194953 0)
(0.106025 -0.00201779 0)
(0.106501 -0.00208357 0)
(0.106981 -0.00214707 0)
(0.107465 -0.00220856 0)
(0.107952 -0.00226831 0)
(0.10844 -0.00232666 0)
(0.10893 -0.00238392 0)
(0.10942 -0.00244042 0)
(0.109911 -0.00249646 0)
(0.110401 -0.00255231 0)
(0.11089 -0.00260818 0)
(0.111379 -0.00266423 0)
(0.111867 -0.00272054 0)
(0.112353 -0.00277712 0)
(0.112838 -0.0028339 0)
(0.113321 -0.00289076 0)
(0.113802 -0.00294746 0)
(0.114281 -0.00300374 0)
(0.114757 -0.00305924 0)
(0.115231 -0.00311356 0)
(0.115701 -0.00316624 0)
(0.116169 -0.00321679 0)
(0.116632 -0.00326463 0)
(0.117091 -0.00330919 0)
(0.117545 -0.00334983 0)
(0.117994 -0.00338586 0)
(0.118437 -0.00341656 0)
(0.118873 -0.00344116 0)
(0.119302 -0.00345885 0)
(0.119724 -0.00346875 0)
(0.120137 -0.00346991 0)
(0.120541 -0.00346134 0)
(0.120935 -0.00344195 0)
(0.121319 -0.00341055 0)
(0.121692 -0.00336587 0)
(0.122054 -0.00330653 0)
(0.122404 -0.00323101 0)
(0.122741 -0.00313766 0)
(0.123066 -0.00302468 0)
(0.123378 -0.00289009 0)
(0.123677 -0.00273177 0)
(0.123963 -0.00254738 0)
(0.124237 -0.00233441 0)
(0.124499 -0.00209016 0)
(0.124752 -0.00181175 0)
(0.124995 -0.00149615 0)
(0.125232 -0.00114025 0)
(0.125466 -0.000740845 0)
(0.1257 -0.00029479 0)
(0.125939 0.000200916 0)
(0.126188 0.00074823 0)
(0.126452 0.0013488 0)
(0.126741 0.0020034 0)
(0.127062 0.00271157 0)
(0.127425 0.00347113 0)
(0.127838 0.00427783 0)
(0.128312 0.00512494 0)
(0.128857 0.00600297 0)
(0.129478 0.00689953 0)
(0.130183 0.00779951 0)
(0.130971 0.00868565 0)
(0.13184 0.00953974 0)
(0.13278 0.0103447 0)
(0.100004 -0.000189928 0)
(0.100086 -0.00038068 0)
(0.100216 -0.000551889 0)
(0.100387 -0.000708885 0)
(0.100597 -0.000854371 0)
(0.100841 -0.000990196 0)
(0.101116 -0.00111787 0)
(0.101418 -0.00123862 0)
(0.101744 -0.0013534 0)
(0.102092 -0.00146294 0)
(0.102459 -0.00156782 0)
(0.102844 -0.00166845 0)
(0.103244 -0.00176515 0)
(0.103657 -0.00185814 0)
(0.104082 -0.00194758 0)
(0.104518 -0.00203358 0)
(0.104962 -0.00211626 0)
(0.105414 -0.00219572 0)
(0.105873 -0.00227211 0)
(0.106336 -0.00234562 0)
(0.106804 -0.00241647 0)
(0.107275 -0.00248496 0)
(0.107747 -0.00255139 0)
(0.108222 -0.00261612 0)
(0.108697 -0.00267953 0)
(0.109172 -0.00274196 0)
(0.109647 -0.00280376 0)
(0.110122 -0.00286523 0)
(0.110595 -0.00292661 0)
(0.111067 -0.00298807 0)
(0.111537 -0.00304972 0)
(0.112005 -0.00311157 0)
(0.112471 -0.00317355 0)
(0.112935 -0.00323551 0)
(0.113397 -0.00329722 0)
(0.113856 -0.00335836 0)
(0.114311 -0.00341856 0)
(0.114764 -0.00347738 0)
(0.115213 -0.00353431 0)
(0.115658 -0.00358879 0)
(0.116099 -0.00364024 0)
(0.116535 -0.00368799 0)
(0.116967 -0.00373135 0)
(0.117392 -0.00376959 0)
(0.117812 -0.00380194 0)
(0.118225 -0.00382757 0)
(0.11863 -0.0038456 0)
(0.119029 -0.00385513 0)
(0.119419 -0.00385517 0)
(0.119801 -0.00384468 0)
(0.120173 -0.00382256 0)
(0.120536 -0.00378761 0)
(0.120889 -0.00373858 0)
(0.121232 -0.00367409 0)
(0.121565 -0.00359269 0)
(0.121886 -0.00349283 0)
(0.122198 -0.00337282 0)
(0.122498 -0.00323089 0)
(0.122789 -0.00306514 0)
(0.12307 -0.00287358 0)
(0.123342 -0.0026541 0)
(0.123607 -0.00240453 0)
(0.123866 -0.00212267 0)
(0.12412 -0.00180631 0)
(0.124374 -0.00145329 0)
(0.124629 -0.00106161 0)
(0.124889 -0.000629462 0)
(0.125158 -0.000155319 0)
(0.125442 0.000361742 0)
(0.125745 0.000921186 0)
(0.126074 0.00152204 0)
(0.126434 0.00216227 0)
(0.126832 0.0028385 0)
(0.127274 0.00354583 0)
(0.127766 0.00427772 0)
(0.128314 0.00502597 0)
(0.128921 0.00578087 0)
(0.129588 0.00653146 0)
(0.130314 0.00726613 0)
(0.131096 0.00797346 0)
(0.131926 0.00864352 0)
(0.100002 -0.000210063 0)
(0.100082 -0.000422714 0)
(0.100208 -0.000614109 0)
(0.100374 -0.00078986 0)
(0.100577 -0.000952893 0)
(0.100814 -0.00110517 0)
(0.101081 -0.0012483 0)
(0.101374 -0.00138363 0)
(0.101692 -0.0015122 0)
(0.10203 -0.00163483 0)
(0.102387 -0.00175215 0)
(0.102761 -0.00186463 0)
(0.10315 -0.00197262 0)
(0.103552 -0.00207636 0)
(0.103966 -0.00217605 0)
(0.10439 -0.00227179 0)
(0.104822 -0.00236373 0)
(0.105261 -0.00245197 0)
(0.105706 -0.00253669 0)
(0.106156 -0.00261807 0)
(0.106609 -0.00269639 0)
(0.107065 -0.00277193 0)
(0.107523 -0.00284506 0)
(0.107982 -0.00291617 0)
(0.108442 -0.00298566 0)
(0.108901 -0.00305392 0)
(0.109359 -0.00312134 0)
(0.109816 -0.00318825 0)
(0.110271 -0.00325491 0)
(0.110725 -0.00332154 0)
(0.111176 -0.00338824 0)
(0.111625 -0.00345503 0)
(0.112071 -0.00352186 0)
(0.112515 -0.00358854 0)
(0.112956 -0.00365485 0)
(0.113393 -0.00372044 0)
(0.113827 -0.0037849 0)
(0.114257 -0.00384776 0)
(0.114683 -0.00390847 0)
(0.115105 -0.00396644 0)
(0.115522 -0.004021 0)
(0.115934 -0.00407148 0)
(0.116341 -0.00411712 0)
(0.116743 -0.00415715 0)
(0.117138 -0.00419074 0)
(0.117526 -0.00421704 0)
(0.117908 -0.00423514 0)
(0.118282 -0.0042441 0)
(0.118649 -0.0042429 0)
(0.119008 -0.00423052 0)
(0.119358 -0.00420585 0)
(0.1197 -0.00416773 0)
(0.120032 -0.00411493 0)
(0.120356 -0.00404617 0)
(0.120671 -0.0039601 0)
(0.120977 -0.0038553 0)
(0.121275 -0.00373029 0)
(0.121564 -0.00358353 0)
(0.121846 -0.00341342 0)
(0.122121 -0.00321837 0)
(0.12239 -0.00299672 0)
(0.122656 -0.00274689 0)
(0.122919 -0.00246733 0)
(0.123181 -0.0021566 0)
(0.123446 -0.00181345 0)
(0.123716 -0.00143686 0)
(0.123994 -0.00102616 0)
(0.124284 -0.000581004 0)
(0.12459 -0.000101432 0)
(0.124917 0.000411578 0)
(0.125267 0.000955562 0)
(0.125647 0.00152771 0)
(0.126059 0.00212435 0)
(0.126508 0.00274078 0)
(0.126997 0.0033713 0)
(0.127529 0.00400933 0)
(0.128104 0.00464754 0)
(0.128722 0.0052782 0)
(0.129383 0.00589352 0)
(0.130082 0.00648629 0)
(0.130814 0.0070507 0)
(0.0999996 -0.000230795 0)
(0.100078 -0.000466035 0)
(0.1002 -0.000678383 0)
(0.10036 -0.000873644 0)
(0.100556 -0.00105496 0)
(0.100785 -0.00122439 0)
(0.101044 -0.00138366 0)
(0.101328 -0.0015342 0)
(0.101635 -0.00167716 0)
(0.101963 -0.00181342 0)
(0.10231 -0.00194368 0)
(0.102672 -0.00206847 0)
(0.103049 -0.00218816 0)
(0.103439 -0.00230303 0)
(0.10384 -0.00241328 0)
(0.10425 -0.00251905 0)
(0.104668 -0.00262048 0)
(0.105093 -0.0027177 0)
(0.105524 -0.00281089 0)
(0.105958 -0.00290026 0)
(0.106396 -0.00298609 0)
(0.106837 -0.00306871 0)
(0.107278 -0.00314851 0)
(0.10772 -0.00322591 0)
(0.108162 -0.00330135 0)
(0.108604 -0.00337528 0)
(0.109044 -0.0034481 0)
(0.109482 -0.00352019 0)
(0.109918 -0.00359184 0)
(0.110352 -0.00366329 0)
(0.110783 -0.00373467 0)
(0.111212 -0.003806 0)
(0.111637 -0.00387723 0)
(0.112059 -0.00394818 0)
(0.112477 -0.0040186 0)
(0.112891 -0.00408812 0)
(0.113302 -0.00415632 0)
(0.113708 -0.00422269 0)
(0.11411 -0.00428664 0)
(0.114508 -0.00434754 0)
(0.1149 -0.0044047 0)
(0.115288 -0.00445739 0)
(0.115669 -0.00450482 0)
(0.116045 -0.00454618 0)
(0.116415 -0.00458062 0)
(0.116779 -0.00460726 0)
(0.117135 -0.00462517 0)
(0.117485 -0.0046334 0)
(0.117828 -0.00463095 0)
(0.118163 -0.00461681 0)
(0.11849 -0.0045899 0)
(0.11881 -0.00454913 0)
(0.119122 -0.00449335 0)
(0.119427 -0.0044214 0)
(0.119724 -0.00433206 0)
(0.120014 -0.0042241 0)
(0.120297 -0.00409628 0)
(0.120575 -0.00394733 0)
(0.120847 -0.00377601 0)
(0.121115 -0.0035811 0)
(0.12138 -0.00336145 0)
(0.121644 -0.00311599 0)
(0.121908 -0.00284379 0)
(0.122174 -0.0025441 0)
(0.122444 -0.0022164 0)
(0.122722 -0.00186045 0)
(0.12301 -0.0014764 0)
(0.12331 -0.00106474 0)
(0.123627 -0.000626357 0)
(0.123962 -0.000162463 0)
(0.12432 0.000324948 0)
(0.124703 0.000832203 0)
(0.125113 0.00135571 0)
(0.125553 0.00189133 0)
(0.126023 0.00243446 0)
(0.126526 0.00298 0)
(0.12706 0.00352259 0)
(0.127626 0.00405683 0)
(0.12822 0.00457749 0)
(0.128841 0.00507998 0)
(0.129485 0.00556087 0)
(0.0999969 -0.000252092 0)
(0.100074 -0.000510557 0)
(0.100191 -0.000744569 0)
(0.100345 -0.000960047 0)
(0.100534 -0.00116034 0)
(0.100755 -0.00134759 0)
(0.101004 -0.00152363 0)
(0.101278 -0.00168998 0)
(0.101575 -0.00184787 0)
(0.101892 -0.00199828 0)
(0.102226 -0.00214194 0)
(0.102576 -0.00227944 0)
(0.10294 -0.0024112 0)
(0.103316 -0.00253752 0)
(0.103703 -0.00265861 0)
(0.104098 -0.00277464 0)
(0.104502 -0.00288575 0)
(0.104911 -0.00299209 0)
(0.105325 -0.00309384 0)
(0.105744 -0.00319124 0)
(0.106165 -0.00328459 0)
(0.106588 -0.00337424 0)
(0.107011 -0.00346061 0)
(0.107435 -0.00354415 0)
(0.107859 -0.00362536 0)
(0.108281 -0.0037047 0)
(0.108701 -0.00378263 0)
(0.109119 -0.00385956 0)
(0.109535 -0.00393583 0)
(0.109948 -0.00401167 0)