/*--------------------------------*- C++ -*----------------------------------*\
| =========                 |                                                 |
| \\      /  F ield         | OpenFOAM: The Open Source CFD Toolbox           |
|  \\    /   O peration     | Version:  2106                                  |
|   \\  /    A nd           | Website:  www.openfoam.com                      |
|    \\/     M anipulation  |                                                 |
\*---------------------------------------------------------------------------*/
FoamFile
{
    version     2.0;
    format      ascii;
    arch        "LSB;label=32;scalar=64";
    class       surfaceScalarField;
    location    "5.8";
    object      phi;
}
// * * * * * * * * * * * * * * * * * * * * * * * * * * * * * * * * * * * * * //

dimensions      [1 0 -1 0 0 0 0];

oriented        oriented;

internalField   nonuniform List<scalar> 
23692
(
9.31776e-05
-9.81831e-08
9.33552e-05
-1.7757e-07
9.36035e-05
-2.48196e-07
9.39138e-05
-3.10328e-07
9.42799e-05
-3.65953e-07
9.46962e-05
-4.16272e-07
9.51584e-05
-4.62093e-07
9.56625e-05
-5.04054e-07
9.62053e-05
-5.42652e-07
9.67837e-05
-5.7828e-07
9.73951e-05
-6.11258e-07
9.80371e-05
-6.41853e-07
9.87075e-05
-6.70276e-07
9.94044e-05
-6.96718e-07
0.000100126
-7.21332e-07
0.00010087
-7.44244e-07
0.000101636
-7.6557e-07
0.000102422
-7.85403e-07
0.000103226
-8.03821e-07
0.000104047
-8.20895e-07
0.000104884
-8.36688e-07
0.000105735
-8.51245e-07
0.0001066
-8.64615e-07
0.000107477
-8.76835e-07
0.000108365
-8.87934e-07
0.000109263
-8.97944e-07
0.00011017
-9.06887e-07
0.000111085
-9.14785e-07
0.000112007
-9.21653e-07
0.000112935
-9.27505e-07
0.000113868
-9.32353e-07
0.000114804
-9.36207e-07
0.000115743
-9.39071e-07
0.000116685
-9.40951e-07
0.000117627
-9.41846e-07
0.000118569
-9.41759e-07
0.000119509
-9.40682e-07
0.000120448
-9.38611e-07
0.000121384
-9.35535e-07
0.000122316
-9.31446e-07
0.000123242
-9.26322e-07
0.000124162
-9.20147e-07
0.000125075
-9.12896e-07
0.00012598
-9.04538e-07
0.000126875
-8.9504e-07
0.00012776
-8.84359e-07
0.000128632
-8.72445e-07
0.000129492
-8.59242e-07
0.000130337
-8.4468e-07
0.000131165
-8.28679e-07
0.000131977
-8.11146e-07
0.000132769
-7.91968e-07
0.00013354
-7.71015e-07
0.000134288
-7.48132e-07
0.000135011
-7.23133e-07
0.000135707
-6.95803e-07
0.000136373
-6.65877e-07
0.000137006
-6.3304e-07
0.000137603
-5.96913e-07
0.00013816
-5.57031e-07
0.000138673
-5.12828e-07
0.000139137
-4.63599e-07
0.000139545
-4.08468e-07
0.000139892
-3.46331e-07
0.000140168
-2.75779e-07
0.000140363
-1.94994e-07
0.000140464
-1.01603e-07
0.000140457
7.49808e-09
0.00014032
1.36748e-07
0.000140028
2.9205e-07
0.000139546
4.81998e-07
0.000138827
7.19016e-07
0.000137805
1.02168e-06
0.000136387
1.41856e-06
0.000134432
1.95492e-06
0.000131727
2.70454e-06
0.000127937
3.79051e-06
0.000122513
5.42404e-06
0.000114518
7.99451e-06
0.000102217
1.23014e-05
2.06397e-05
8.15774e-05
9.97015e-05
-2.00634e-07
9.98904e-05
-3.66505e-07
0.000100155
-5.12917e-07
0.000100486
-6.41501e-07
0.000100877
-7.56653e-07
0.000101322
-8.60814e-07
0.000101815
-9.55649e-07
0.000102354
-1.04249e-06
0.000102934
-1.12236e-06
0.000103552
-1.19608e-06
0.000104205
-1.26432e-06
0.000104891
-1.32761e-06
0.000105607
-1.38642e-06
0.000106352
-1.44112e-06
0.000107123
-1.49202e-06
0.000107918
-1.53941e-06
0.000108736
-1.58352e-06
0.000109575
-1.62452e-06
0.000110434
-1.66261e-06
0.000111312
-1.69791e-06
0.000112206
-1.73055e-06
0.000113115
-1.76064e-06
0.000114039
-1.78827e-06
0.000114976
-1.81351e-06
0.000115925
-1.83644e-06
0.000116884
-1.85711e-06
0.000117853
-1.87557e-06
0.000118831
-1.89186e-06
0.000119815
-1.90603e-06
0.000120806
-1.91809e-06
0.000121802
-1.92807e-06
0.000122802
-1.93599e-06
0.000123805
-1.94187e-06
0.00012481
-1.9457e-06
0.000125816
-1.9475e-06
0.000126822
-1.94726e-06
0.000127826
-1.94498e-06
0.000128828
-1.94064e-06
0.000129827
-1.93422e-06
0.000130822
-1.9257e-06
0.000131811
-1.91505e-06
0.000132793
-1.90221e-06
0.000133767
-1.88716e-06
0.000134733
-1.86981e-06
0.000135688
-1.85011e-06
0.000136632
-1.82797e-06
0.000137563
-1.80328e-06
0.000138479
-1.77593e-06
0.000139381
-1.74577e-06
0.000140265
-1.71265e-06
0.00014113
-1.67637e-06
0.000141975
-1.6367e-06
0.000142797
-1.59338e-06
0.000143596
-1.54608e-06
0.000144367
-1.49445e-06
0.000145109
-1.43802e-06
0.00014582
-1.37628e-06
0.000146495
-1.30858e-06
0.000147133
-1.23415e-06
0.000147728
-1.15206e-06
0.000148276
-1.06117e-06
0.000148773
-9.60065e-07
0.000149211
-8.47e-07
0.000149585
-7.19775e-07
0.000149885
-5.75607e-07
0.000150101
-4.10921e-07
0.00015022
-2.21074e-07
0.000150228
-4.90523e-11
0.000150104
2.60569e-07
0.000149824
5.71863e-07
0.000149357
9.4968e-07
0.000148659
1.41639e-06
0.000147676
2.00445e-06
0.000146333
2.76193e-06
0.000144527
3.7613e-06
0.000142118
5.11324e-06
0.000138922
6.98661e-06
0.000134711
9.63496e-06
0.000129274
1.34317e-05
0.000122742
1.88331e-05
2.56544e-05
0.000117727
0.000106681
-3.06736e-07
0.000106881
-5.66547e-07
0.000107162
-7.93961e-07
0.000107515
-9.93803e-07
0.000107931
-1.17269e-06
0.000108405
-1.33446e-06
0.000108931
-1.48172e-06
0.000109505
-1.61655e-06
0.000110123
-1.74053e-06
0.000110782
-1.85496e-06
0.000111479
-1.96086e-06
0.000112211
-2.05907e-06
0.000112975
-2.15031e-06
0.000113769
-2.23516e-06
0.000114591
-2.31412e-06
0.00011544
-2.38762e-06
0.000116312
-2.456e-06
0.000117208
-2.51958e-06
0.000118124
-2.57861e-06
0.000119059
-2.63331e-06
0.000120013
-2.68389e-06
0.000120983
-2.73049e-06
0.000121968
-2.77327e-06
0.000122967
-2.81234e-06
0.000123979
-2.84782e-06
0.000125002
-2.87979e-06
0.000126035
-2.90832e-06
0.000127077
-2.93349e-06
0.000128126
-2.95534e-06
0.000129183
-2.97393e-06
0.000130244
-2.98929e-06
0.00013131
-3.00144e-06
0.000132379
-3.01042e-06
0.000133449
-3.01623e-06
0.000134521
-3.01888e-06
0.000135592
-3.01836e-06
0.000136662
-3.01467e-06
0.000137729
-3.00778e-06
0.000138793
-2.99767e-06
0.000139852
-2.9843e-06
0.000140905
-2.96762e-06
0.00014195
-2.94756e-06
0.000142987
-2.92405e-06
0.000144015
-2.89699e-06
0.000145031
-2.86629e-06
0.000146035
-2.8318e-06
0.000147025
-2.79337e-06
0.000148
-2.75083e-06
0.000148959
-2.70396e-06
0.000149899
-2.65251e-06
0.000150819
-2.59618e-06
0.000151717
-2.53464e-06
0.000152591
-2.46747e-06
0.000153439
-2.3942e-06
0.000154259
-2.31427e-06
0.000155048
-2.227e-06
0.000155804
-2.1316e-06
0.000156522
-2.02711e-06
0.000157201
-1.91238e-06
0.000157835
-1.78603e-06
0.00015842
-1.64635e-06
0.000158951
-1.49128e-06
0.000159422
-1.31825e-06
0.000159827
-1.12405e-06
0.000160156
-9.04683e-07
0.0001604
-6.55024e-07
0.000160548
-3.6852e-07
0.000160584
-3.66872e-08
0.000160493
3.51696e-07
0.000160253
8.11561e-07
0.00015984
1.36333e-06
0.000159221
2.03496e-06
0.00015836
2.86527e-06
0.000157214
3.9086e-06
0.000155734
5.24127e-06
0.000153878
6.96956e-06
0.000151627
9.23688e-06
0.00014904
1.22221e-05
0.000146365
1.61065e-05
0.000144291
2.09071e-05
2.58941e-05
0.000144052
0.000114149
-4.16212e-07
0.00011436
-7.77173e-07
0.000114657
-1.09114e-06
0.000115031
-1.36734e-06
0.000115473
-1.61449e-06
0.000115976
-1.83789e-06
0.000116536
-2.04121e-06
0.000117147
-2.22732e-06
0.000117805
-2.39843e-06
0.000118506
-2.55632e-06
0.000119248
-2.70241e-06
0.000120027
-2.83788e-06
0.000120841
-2.9637e-06
0.000121686
-3.08069e-06
0.000122562
-3.18954e-06
0.000123465
-3.29083e-06
0.000124395
-3.38505e-06
0.000125348
-3.47263e-06
0.000126323
-3.55392e-06
0.00012732
-3.62923e-06
0.000128335
-3.69882e-06
0.000129368
-3.76294e-06
0.000130416
-3.82176e-06
0.00013148
-3.87547e-06
0.000132556
-3.92419e-06
0.000133645
-3.96807e-06
0.000134744
-4.00721e-06
0.000135852
-4.04169e-06
0.000136969
-4.07159e-06
0.000138092
-4.09698e-06
0.000139221
-4.11791e-06
0.000140354
-4.13441e-06
0.000141491
-4.14652e-06
0.000142629
-4.15426e-06
0.000143768
-4.15763e-06
0.000144907
-4.15663e-06
0.000146043
-4.15125e-06
0.000147177
-4.14146e-06
0.000148307
-4.12722e-06
0.000149432
-4.10848e-06
0.000150549
-4.08518e-06
0.000151659
-4.05723e-06
0.00015276
-4.02453e-06
0.00015385
-3.98694e-06
0.000154928
-3.94434e-06
0.000155993
-3.89654e-06
0.000157043
-3.84333e-06
0.000158077
-3.78447e-06
0.000159093
-3.71968e-06
0.000160089
-3.64862e-06
0.000161064
-3.5709e-06
0.000162016
-3.48606e-06
0.000162942
-3.39356e-06
0.000163841
-3.29277e-06
0.000164709
-3.18293e-06
0.000165546
-3.06317e-06
0.000166347
-2.93243e-06
0.000167109
-2.78946e-06
0.00016783
-2.63277e-06
0.000168504
-2.46054e-06
0.000169128
-2.2706e-06
0.000169698
-2.0603e-06
0.000170206
-1.82639e-06
0.000170647
-1.56484e-06
0.000171013
-1.27067e-06
0.000171295
-9.37627e-07
0.000171485
-5.57811e-07
0.000171569
-1.21197e-07
0.000171536
3.85005e-07
0.00017137
9.77354e-07
0.000171056
1.67765e-06
0.000170576
2.51444e-06
0.000169916
3.52516e-06
0.000169066
4.75861e-06
0.00016803
6.27749e-06
0.00016684
8.15945e-06
0.000165584
1.04933e-05
0.000164444
1.33618e-05
0.000163758
1.6793e-05
0.000164029
2.06356e-05
2.42984e-05
0.000165625
0.00012214
-5.28933e-07
0.000122361
-9.97941e-07
0.000122674
-1.40419e-06
0.000123069
-1.76211e-06
0.000123537
-2.08228e-06
0.000124071
-2.37159e-06
0.000124664
-2.63483e-06
0.000125313
-2.87571e-06
0.000126012
-3.09714e-06
0.000126757
-3.3014e-06
0.000127545
-3.49034e-06
0.000128373
-3.66551e-06
0.000129237
-3.82817e-06
0.000130136
-3.97936e-06
0.000131067
-4.12e-06
0.000132027
-4.25083e-06
0.000133015
-4.3725e-06
0.000134028
-4.48554e-06
0.000135065
-4.59043e-06
0.000136124
-4.68757e-06
0.000137202
-4.7773e-06
0.0001383
-4.85991e-06
0.000139414
-4.93567e-06
0.000140543
-5.00479e-06
0.000141687
-5.06745e-06
0.000142843
-5.12383e-06
0.00014401
-5.17406e-06
0.000145187
-5.21825e-06
0.000146372
-5.25651e-06
0.000147564
-5.28892e-06
0.000148762
-5.31555e-06
0.000149965
-5.33645e-06
0.00015117
-5.35166e-06
0.000152377
-5.36121e-06
0.000153585
-5.3651e-06
0.000154792
-5.36333e-06
0.000155997
-5.35589e-06
0.000157198
-5.34275e-06
0.000158395
-5.32387e-06
0.000159586
-5.29916e-06
0.00016077
-5.26857e-06
0.000161945
-5.23196e-06
0.00016311
-5.18923e-06
0.000164263
-5.14022e-06
0.000165404
-5.08474e-06
0.00016653
-5.02257e-06
0.00016764
-4.95346e-06
0.000168733
-4.8771e-06
0.000169807
-4.79314e-06
0.000170859
-4.70116e-06
0.000171889
-4.60069e-06
0.000172895
-4.49114e-06
0.000173873
-4.37186e-06
0.000174822
-4.24207e-06
0.000175741
-4.10086e-06
0.000176625
-3.94714e-06
0.000177472
-3.77966e-06
0.00017828
-3.59689e-06
0.000179044
-3.39705e-06
0.000179761
-3.17801e-06
0.000180428
-2.93719e-06
0.000181039
-2.67151e-06
0.00018159
-2.37722e-06
0.000182075
-2.04978e-06
0.000182488
-1.68359e-06
0.000182823
-1.27181e-06
0.000183071
-8.05945e-07
0.000183225
-2.75522e-07
0.000183278
3.32367e-07
0.000183221
1.03366e-06
0.000183051
1.84843e-06
0.000182764
2.80158e-06
0.000182365
3.9235e-06
0.000181873
5.25052e-06
0.000181327
6.82419e-06
0.000180798
8.68831e-06
0.00018041
1.08808e-05
0.000180356
1.3416e-05
0.0001809
1.62488e-05
0.000182326
1.92101e-05
2.19154e-05
0.000184709
0.00013069
-6.44885e-07
0.000130921
-1.22851e-06
0.00013125
-1.73287e-06
0.000131665
-2.17796e-06
0.000132159
-2.57617e-06
0.000132724
-2.93588e-06
0.000133352
-3.2631e-06
0.000134039
-3.56244e-06
0.00013478
-3.83753e-06
0.00013557
-4.09121e-06
0.000136405
-4.32582e-06
0.000137283
-4.54324e-06
0.0001382
-4.74507e-06
0.000139154
-4.93263e-06
0.000140141
-5.10702e-06
0.00014116
-5.26919e-06
0.000142207
-5.41995e-06
0.000143282
-5.55996e-06
0.000144382
-5.68982e-06
0.000145505
-5.81001e-06
0.000146649
-5.92098e-06
0.000147812
-6.02308e-06
0.000148993
-6.11665e-06
0.000150191
-6.20194e-06
0.000151403
-6.2792e-06
0.000152628
-6.34862e-06
0.000153865
-6.41039e-06
0.000155111
-6.46465e-06
0.000156367
-6.51153e-06
0.000157629
-6.55113e-06
0.000158897
-6.58353e-06
0.00016017
-6.6088e-06
0.000161446
-6.627e-06
0.000162723
-6.63815e-06
0.000164
-6.64227e-06
0.000165277
-6.63937e-06
0.00016655
-6.62943e-06
0.00016782
-6.61241e-06
0.000169085
-6.58826e-06
0.000170343
-6.5569e-06
0.000171593
-6.51823e-06
0.000172833
-6.47214e-06
0.000174063
-6.41847e-06
0.00017528
-6.35704e-06
0.000176483
-6.28763e-06
0.000177671
-6.20998e-06
0.000178841
-6.12379e-06
0.000179993
-6.02871e-06
0.000181124
-5.92431e-06
0.000182233
-5.81011e-06
0.000183318
-5.68555e-06
0.000184377
-5.54995e-06
0.000185408
-5.40256e-06
0.000186409
-5.24246e-06
0.000187377
-5.06862e-06
0.00018831
-4.8798e-06
0.000189205
-4.67455e-06
0.000190059
-4.45118e-06
0.00019087
-4.20769e-06
0.000191633
-3.94172e-06
0.000192347
-3.65046e-06
0.000193006
-3.33057e-06
0.000193607
-2.97809e-06
0.000194145
-2.58826e-06
0.000194617
-2.15536e-06
0.000195018
-1.67257e-06
0.000195344
-1.13164e-06
0.000195591
-5.22715e-07
0.000195758
1.65884e-07
0.000195844
9.47711e-07
0.000195853
1.83874e-06
0.000195797
2.85764e-06
0.000195696
4.02519e-06
0.000195583
5.36338e-06
0.000195514
6.89325e-06
0.000195571
8.63084e-06
0.000195872
1.05798e-05
0.000196569
1.2719e-05
0.000197835
1.49833e-05
0.000199807
1.72375e-05
1.92543e-05
0.000202469
0.000139839
-7.64152e-07
0.000140079
-1.46862e-06
0.000140423
-2.07694e-06
0.00014086
-2.61475e-06
0.00014138
-3.09612e-06
0.000141975
-3.53092e-06
0.000142639
-3.92635e-06
0.000143364
-4.28801e-06
0.000144147
-4.62026e-06
0.000144983
-4.92657e-06
0.000145867
-5.20974e-06
0.000146796
-5.47209e-06
0.000147767
-5.71553e-06
0.000148776
-5.94167e-06
0.000149821
-6.15185e-06
0.000150899
-6.34722e-06
0.000152009
-6.52875e-06
0.000153146
-6.69725e-06
0.00015431
-6.85345e-06
0.000155498
-6.99794e-06
0.000156709
-7.13125e-06
0.00015794
-7.25382e-06
0.00015919
-7.36604e-06
0.000160456
-7.46824e-06
0.000161738
-7.56071e-06
0.000163034
-7.6437e-06
0.000164341
-7.71741e-06
0.000165659
-7.78203e-06
0.000166985
-7.83771e-06
0.000168319
-7.88459e-06
0.000169658
-7.92275e-06
0.000171002
-7.9523e-06
0.000172349
-7.97329e-06
0.000173697
-7.98577e-06
0.000175045
-7.98977e-06
0.000176391
-7.98527e-06
0.000177734
-7.97228e-06
0.000179073
-7.95076e-06
0.000180405
-7.92064e-06
0.000181731
-7.88185e-06
0.000183047
-7.83427e-06
0.000184353
-7.77777e-06
0.000185647
-7.71217e-06
0.000186927
-7.63727e-06
0.000188193
-7.55283e-06
0.000189441
-7.45855e-06
0.000190672
-7.35409e-06
0.000191882
-7.23906e-06
0.000193071
-7.11297e-06
0.000194237
-6.9753e-06
0.000195377
-6.8254e-06
0.000196489
-6.66254e-06
0.000197573
-6.48588e-06
0.000198625
-6.29441e-06
0.000199644
-6.08701e-06
0.000200626
-5.86234e-06
0.000201571
-5.61884e-06
0.000202474
-5.35472e-06
0.000203335
-5.06787e-06
0.000204149
-4.75584e-06
0.000204914
-4.41578e-06
0.000205628
-4.04432e-06
0.000206288
-3.63755e-06
0.00020689
-3.19089e-06
0.000207434
-2.69899e-06
0.000207917
-2.15561e-06
0.000208339
-1.55352e-06
0.000208701
-8.84416e-07
0.000209006
-1.3885e-07
0.00020926
6.93446e-07
0.000209476
1.62311e-06
0.000209671
2.66177e-06
0.000209876
3.82069e-06
0.00021013
5.10931e-06
0.00021049
6.53307e-06
0.000211031
8.09e-06
0.000211845
9.76585e-06
0.000213037
1.15275e-05
0.000214705
1.33151e-05
0.000216907
1.50348e-05
1.65587e-05
0.000219603
0.000149628
-8.8687e-07
0.000149878
-1.71808e-06
0.000150237
-2.4362e-06
0.000150695
-3.07225e-06
0.000151241
-3.64202e-06
0.000151867
-4.1567e-06
0.000152565
-4.62474e-06
0.00015333
-5.05271e-06
0.000154156
-5.44576e-06
0.000155037
-5.80801e-06
0.000155971
-6.14278e-06
0.000156952
-6.4528e-06
0.000157977
-6.74037e-06
0.000159043
-7.00738e-06
0.000160147
-7.25544e-06
0.000161286
-7.48589e-06
0.000162457
-7.69991e-06
0.000163659
-7.89845e-06
0.000164888
-8.08238e-06
0.000166143
-8.2524e-06
0.000167421
-8.40914e-06
0.00016872
-8.55313e-06
0.00017004
-8.68483e-06
0.000171376
-8.80463e-06
0.000172729
-8.91289e-06
0.000174095
-9.00989e-06
0.000175474
-9.09589e-06
0.000176864
-9.1711e-06
0.000178262
-9.23572e-06
0.000179668
-9.28989e-06
0.000181079
-9.33374e-06
0.000182494
-9.36739e-06
0.000183912
-9.3909e-06
0.000185331
-9.40434e-06
0.00018675
-9.40774e-06
0.000188166
-9.40111e-06
0.000189578
-9.38445e-06
0.000190986
-9.35772e-06
0.000192386
-9.32085e-06
0.000193778
-9.27377e-06
0.000195161
-9.21635e-06
0.000196532
-9.14845e-06
0.00019789
-9.06988e-06
0.000199233
-8.98043e-06
0.00020056
-8.87982e-06
0.00020187
-8.76775e-06
0.00020316
-8.64384e-06
0.000204428
-8.50766e-06
0.000205674
-8.35871e-06
0.000206896
-8.1964e-06
0.000208091
-8.02007e-06
0.000209257
-7.82894e-06
0.000210394
-7.62211e-06
0.000211498
-7.39855e-06
0.000212568
-7.15708e-06
0.000213602
-6.89632e-06
0.000214598
-6.61471e-06
0.000215554
-6.31043e-06
0.000216468
-5.98142e-06
0.000217337
-5.62529e-06
0.000218161
-5.23931e-06
0.000218937
-4.82036e-06
0.000219665
-4.36485e-06
0.000220342
-3.86874e-06
0.000220971
-3.32745e-06
0.000221551
-2.73585e-06
0.000222086
-2.08826e-06
0.00022258
-1.3785e-06
0.000223041
-6.00004e-07
0.000223481
2.54e-07
0.000223915
1.18923e-06
0.000224366
2.21056e-06
0.000224865
3.32147e-06
0.000225452
4.52242e-06
0.000226176
5.8091e-06
0.000227096
7.17037e-06
0.000228276
8.58574e-06
0.000229781
1.00228e-05
0.000231661
1.14349e-05
0.000233934
1.27614e-05
1.39324e-05
0.000236561
0.000160103
-1.01321e-06
0.000160362
-1.97676e-06
0.000160736
-2.81048e-06
0.000161214
-3.55025e-06
0.000161786
-4.21367e-06
0.000162443
-4.81312e-06
0.000163176
-5.35824e-06
0.00016398
-5.85661e-06
0.000164849
-6.31422e-06
0.000165777
-6.73582e-06
0.00016676
-7.12529e-06
0.000167793
-7.48584e-06
0.000168873
-7.82011e-06
0.000169996
-8.13033e-06
0.00017116
-8.41839e-06
0.00017236
-8.68585e-06
0.000173594
-8.93408e-06
0.000174861
-9.16422e-06
0.000176156
-9.37725e-06
0.000177478
-9.57402e-06
0.000178824
-9.75526e-06
0.000180193
-9.92159e-06
0.000181582
-1.00736e-05
0.00018299
-1.02116e-05
0.000184413
-1.03362e-05
0.000185851
-1.04476e-05
0.000187302
-1.05462e-05
0.000188763
-1.06321e-05
0.000190234
-1.07057e-05
0.000191711
-1.07671e-05
0.000193195
-1.08165e-05
0.000194681
-1.0854e-05
0.000196171
-1.08797e-05
0.00019766
-1.08936e-05
0.000199149
-1.08959e-05
0.000200634
-1.08865e-05
0.000202116
-1.08654e-05
0.000203591
-1.08327e-05
0.000205059
-1.07882e-05
0.000206517
-1.07319e-05
0.000207965
-1.06637e-05
0.0002094
-1.05834e-05
0.000210821
-1.04908e-05
0.000212227
-1.03856e-05
0.000213615
-1.02677e-05
0.000214984
-1.01367e-05
0.000216333
-9.99223e-06
0.000217659
-9.8338e-06
0.000218962
-9.66092e-06
0.000220239
-9.473e-06
0.000221488
-9.26936e-06
0.000222708
-9.04921e-06
0.000223898
-8.81165e-06
0.000225056
-8.55568e-06
0.000226179
-8.28011e-06
0.000227266
-7.98363e-06
0.000228316
-7.66473e-06
0.000229328
-7.32172e-06
0.000230299
-6.95269e-06
0.00023123
-6.55547e-06
0.000232118
-6.12766e-06
0.000232964
-5.66656e-06
0.000233769
-5.16921e-06
0.000234532
-4.63237e-06
0.000235258
-4.05254e-06
0.000235948
-3.42599e-06
0.000236609
-2.74888e-06
0.000237247
-2.0174e-06
0.000237875
-1.22788e-06
0.000238506
-3.77013e-07
0.000239158
5.37351e-07
0.000239854
1.5149e-06
0.000240622
2.55348e-06
0.000241496
3.64815e-06
0.000242516
4.78985e-06
0.000243722
5.96445e-06
0.000245156
7.15176e-06
0.000246853
8.32505e-06
0.000248837
9.45124e-06
0.000251106
1.04927e-05
1.14112e-05
0.000253627
0.000171312
-1.14333e-06
0.00017158
-2.24458e-06
0.000171969
-3.19959e-06
0.000172467
-4.04852e-06
0.000173064
-4.8108e-06
0.000173751
-5.49991e-06
0.00017452
-6.12664e-06
0.000175363
-6.69959e-06
0.000176275
-7.22555e-06
0.000177249
-7.70999e-06
0.000178281
-8.15734e-06
0.000179367
-8.57129e-06
0.000180502
-8.95489e-06
0.000181683
-9.31071e-06
0.000182906
-9.64091e-06
0.000184167
-9.94732e-06
0.000185465
-1.02315e-05
0.000186796
-1.04948e-05
0.000188157
-1.07383e-05
0.000189547
-1.0963e-05
0.000190962
-1.11698e-05
0.0001924
-1.13593e-05
0.000193859
-1.15323e-05
0.000195337
-1.16892e-05
0.000196832
-1.18305e-05
0.000198341
-1.19567e-05
0.000199863
-1.2068e-05
0.000201396
-1.21648e-05
0.000202938
-1.22473e-05
0.000204488
-1.23159e-05
0.000206042
-1.23705e-05
0.0002076
-1.24115e-05
0.00020916
-1.24389e-05
0.000210719
-1.24528e-05
0.000212277
-1.24533e-05
0.000213831
-1.24404e-05
0.00021538
-1.24142e-05
0.000216923
-1.23746e-05
0.000218456
-1.23216e-05
0.00021998
-1.22551e-05
0.000221492
-1.2175e-05
0.00022299
-1.20812e-05
0.000224473
-1.19735e-05
0.000225939
-1.18516e-05
0.000227387
-1.17153e-05
0.000228815
-1.15643e-05
0.000230221
-1.13982e-05
0.000231604
-1.12165e-05
0.000232962
-1.10188e-05
0.000234294
-1.08045e-05
0.000235598
-1.0573e-05
0.000236872
-1.03234e-05
0.000238116
-1.00549e-05
0.000239327
-9.76669e-06
0.000240504
-9.45757e-06
0.000241647
-9.12637e-06
0.000242755
-8.77175e-06
0.000243825
-8.39224e-06
0.000244859
-7.98621e-06
0.000245855
-7.55186e-06
0.000246815
-7.08728e-06
0.000247739
-6.59039e-06
0.000248629
-6.05899e-06
0.000249488
-5.49083e-06
0.000250319
-4.88364e-06
0.000251128
-4.23521e-06
0.000251923
-3.54355e-06
0.000252712
-2.80702e-06
0.000253509
-2.02457e-06
0.000254328
-1.19589e-06
0.000255187
-3.2152e-07
0.000256106
5.95858e-07
0.000257109
1.55068e-06
0.000258222
2.53507e-06
0.000259473
3.5387e-06
0.00026089
4.54792e-06
0.000262496
5.54575e-06
0.000264309
6.51213e-06
0.000266335
7.42477e-06
0.000268567
8.26082e-06
8.99968e-06
0.000270979
0.000183305
-1.27739e-06
0.000183582
-2.52144e-06
0.000183986
-3.60336e-06
0.000184504
-4.56676e-06
0.000185126
-5.43304e-06
0.000185843
-6.21669e-06
0.000186646
-6.92956e-06
0.000187528
-7.58125e-06
0.000188482
-8.17941e-06
0.000189503
-8.73019e-06
0.000190584
-9.23863e-06
0.000191722
-9.70889e-06
0.000192912
-1.01445e-05
0.00019415
-1.05483e-05
0.000195432
-1.09228e-05
0.000196755
-1.127e-05
0.000198116
-1.15919e-05
0.000199511
-1.18898e-05
0.000200939
-1.21651e-05
0.000202395
-1.24189e-05
0.000203878
-1.26522e-05
0.000205385
-1.28658e-05
0.000206913
-1.30605e-05
0.000208461
-1.32367e-05
0.000210027
-1.33952e-05
0.000211607
-1.35364e-05
0.0002132
-1.36606e-05
0.000214804
-1.37682e-05
0.000216416
-1.38596e-05
0.000218036
-1.3935e-05
0.00021966
-1.39946e-05
0.000221288
-1.40386e-05
0.000222917
-1.40672e-05
0.000224545
-1.40804e-05
0.00022617
-1.40784e-05
0.000227792
-1.40613e-05
0.000229407
-1.40291e-05
0.000231014
-1.39817e-05
0.000232612
-1.39192e-05
0.000234199
-1.38416e-05
0.000235773
-1.37486e-05
0.000237332
-1.36402e-05
0.000238876
-1.35163e-05
0.000240401
-1.33766e-05
0.000241907
-1.32209e-05
0.000243392
-1.30489e-05
0.000244854
-1.28603e-05
0.000246292
-1.26546e-05
0.000247705
-1.24314e-05
0.000249091
-1.21902e-05
0.000250449
-1.19305e-05
0.000251777
-1.16514e-05
0.000253075
-1.13524e-05
0.000254341
-1.10325e-05
0.000255575
-1.0691e-05
0.000256775
-1.03267e-05
0.000257942
-9.9386e-06
0.000259076
-9.52555e-06
0.000260176
-9.0863e-06
0.000261244
-8.61955e-06
0.000262281
-8.12395e-06
0.000263288
-7.59815e-06
0.00026427
-7.04082e-06
0.00026523
-6.45075e-06
0.000266174
-5.82687e-06
0.000267107
-5.16841e-06
0.000268039
-4.47499e-06
0.000268978
-3.74681e-06
0.000269939
-2.98476e-06
0.000270934
-2.19068e-06
0.00027198
-1.36738e-06
0.000273094
-5.18566e-07
0.000274295
3.49909e-07
0.0002756
1.22969e-06
0.000277029
2.11025e-06
0.000278597
2.98002e-06
0.000280316
3.82592e-06
0.000282195
4.63368e-06
0.000284231
5.38883e-06
0.000286414
6.07776e-06
6.68948e-06
0.000288724
0.000196138
-1.41546e-06
0.000196423
-2.80723e-06
0.000196842
-4.02149e-06
0.00019738
-5.10459e-06
0.000198027
-6.07991e-06
0.000198773
-6.96288e-06
0.00019961
-7.76638e-06
0.00020053
-8.50096e-06
0.000201526
-9.17513e-06
0.000202592
-9.79575e-06
0.000203722
-1.03685e-05
0.000204911
-1.08979e-05
0.000206155
-1.13881e-05
0.00020745
-1.18423e-05
0.00020879
-1.22632e-05
0.000210174
-1.26532e-05
0.000211597
-1.30144e-05
0.000213056
-1.33485e-05
0.000214548
-1.36569e-05
0.00021607
-1.39409e-05
0.00021762
-1.42016e-05
0.000219195
-1.444e-05
0.000220792
-1.46569e-05
0.000222409
-1.4853e-05
0.000224043
-1.50289e-05
0.000225692
-1.51852e-05
0.000227354
-1.53224e-05
0.000229027
-1.54408e-05
0.000230709
-1.55408e-05
0.000232397
-1.56227e-05
0.00023409
-1.56868e-05
0.000235785
-1.57333e-05
0.000237481
-1.57624e-05
0.000239175
-1.57743e-05
0.000240866
-1.57691e-05
0.000242552
-1.57469e-05
0.000244231
-1.57077e-05
0.000245902
-1.56517e-05
0.000247562
-1.55787e-05
0.000249209
-1.54888e-05
0.000250843
-1.53819e-05
0.000252461
-1.5258e-05
0.000254062
-1.51168e-05
0.000255644
-1.49584e-05
0.000257206
-1.47824e-05
0.000258746
-1.45885e-05
0.000260263
-1.43767e-05
0.000261755
-1.41464e-05
0.000263221
-1.38974e-05
0.00026466
-1.36291e-05
0.000266071
-1.33412e-05
0.000267453
-1.30331e-05
0.000268805
-1.27043e-05
0.000270127
-1.2354e-05
0.000271418
-1.19817e-05
0.000272678
-1.15865e-05
0.000273907
-1.11678e-05
0.000275107
-1.07248e-05
0.000276277
-1.02566e-05
0.00027742
-9.7626e-06
0.000278539
-9.24203e-06
0.000279635
-8.69428e-06
0.000280713
-8.11889e-06
0.000281778
-7.5156e-06
0.000282836
-6.88445e-06
0.000283893
-6.22583e-06
0.000284959
-5.54065e-06
0.000286043
-4.8304e-06
0.000287155
-4.09728e-06
0.000288309
-3.34432e-06
0.000289517
-2.57547e-06
0.000290794
-1.79554e-06
0.000292154
-1.01004e-06
0.00029361
-2.25459e-07
0.00029517
5.49706e-07
0.000296844
1.30596e-06
0.000298637
2.03325e-06
0.000300549
2.72155e-06
0.000302576
3.36188e-06
0.000304708
3.94622e-06
4.46881e-06
0.000306928
0.000209869
-1.55758e-06
0.000210163
-3.10176e-06
0.000210596
-4.45361e-06
0.000211153
-5.66148e-06
0.000211824
-6.75071e-06
0.000212599
-7.73769e-06
0.000213469
-8.63619e-06
0.000214426
-9.45774e-06
0.000215462
-1.02117e-05
0.000216573
-1.09056e-05
0.00021775
-1.15457e-05
0.00021899
-1.21372e-05
0.000220287
-1.26846e-05
0.000221636
-1.31914e-05
0.000223034
-1.36608e-05
0.000224477
-1.40954e-05
0.00022596
-1.44976e-05
0.000227481
-1.48692e-05
0.000229037
-1.52118e-05
0.000230624
-1.55271e-05
0.000232239
-1.58161e-05
0.000233879
-1.608e-05
0.000235542
-1.63196e-05
0.000237226
-1.65359e-05
0.000238927
-1.67295e-05
0.000240643
-1.6901e-05
0.000242372
-1.7051e-05
0.000244112
-1.71799e-05
0.00024586
-1.72882e-05
0.000247614
-1.73763e-05
0.000249372
-1.74444e-05
0.000251132
-1.74928e-05
0.000252892
-1.75218e-05
0.000254649
-1.75316e-05
0.000256403
-1.75223e-05
0.000258151
-1.7494e-05
0.00025989
-1.7447e-05
0.00026162
-1.73812e-05
0.000263339
-1.72968e-05
0.000265044
-1.71937e-05
0.000266735
-1.70719e-05
0.000268408
-1.69314e-05
0.000270064
-1.67722e-05
0.0002717
-1.65941e-05
0.000273315
-1.6397e-05
0.000274908
-1.61807e-05
0.000276477
-1.59451e-05
0.00027802
-1.569e-05
0.000279538
-1.5415e-05
0.000281029
-1.51199e-05
0.000282493
-1.48043e-05
0.000283928
-1.4468e-05
0.000285334
-1.41105e-05
0.000286712
-1.37314e-05
0.000288061
-1.33304e-05
0.000289382
-1.29071e-05
0.000290675
-1.24611e-05
0.000291943
-1.1992e-05
0.000293186
-1.14995e-05
0.000294407
-1.09835e-05
0.000295609
-1.04439e-05
0.000296796
-9.88075e-06
0.000297971
-9.29437e-06
0.000299141
-8.68532e-06
0.000300311
-8.0545e-06
0.000301489
-7.40319e-06
0.000302682
-6.73316e-06
0.000303898
-6.04668e-06
0.000305147
-5.34665e-06
0.00030644
-4.63658e-06
0.000307785
-3.92067e-06
0.000309193
-3.20375e-06
0.000310675
-2.49119e-06
0.000312238
-1.78883e-06
0.00031389
-1.10233e-06
0.000315634
-4.38033e-07
0.00031747
1.97261e-07
0.000319395
7.96693e-07
0.000321403
1.35427e-06
0.000323484
1.86521e-06
2.32637e-06
0.000325626
0.000224561
-1.70372e-06
0.000224864
-3.40476e-06
0.00022531
-4.89918e-06
0.000225885
-6.23671e-06
0.000226579
-7.44453e-06
0.000227382
-8.54001e-06
0.000228284
-9.53775e-06
0.000229276
-1.04502e-05
0.000230353
-1.12875e-05
0.000231505
-1.20581e-05
0.000232729
-1.27686e-05
0.000234017
-1.3425e-05
0.000235364
-1.4032e-05
0.000236767
-1.45937e-05
0.00023822
-1.51135e-05
0.00023972
-1.55945e-05
0.000241262
-1.60391e-05
0.000242843
-1.64495e-05
0.000244459
-1.68276e-05
0.000246107
-1.71749e-05
0.000247785
-1.7493e-05
0.000249488
-1.77829e-05
0.000251215
-1.80457e-05
0.000252962
-1.82824e-05
0.000254727
-1.84937e-05
0.000256506
-1.86804e-05
0.000258299
-1.8843e-05
0.000260102
-1.89822e-05
0.000261913
-1.90985e-05
0.000263729
-1.91921e-05
0.000265549
-1.92636e-05
0.00026737
-1.93132e-05
0.00026919
-1.93413e-05
0.000271007
-1.93481e-05
0.000272819
-1.93338e-05
0.000274624
-1.92986e-05
0.00027642
-1.92428e-05
0.000278206
-1.91663e-05
0.000279979
-1.90694e-05
0.000281738
-1.89521e-05
0.000283481
-1.88145e-05
0.000285207
-1.86566e-05
0.000286914
-1.84785e-05
0.0002886
-1.82801e-05
0.000290265
-1.80614e-05
0.000291907
-1.78223e-05
0.000293525
-1.75627e-05
0.000295118
-1.72827e-05
0.000296685
-1.6982e-05
0.000298226
-1.66605e-05
0.00029974
-1.63181e-05
0.000301227
-1.59548e-05
0.000302687
-1.55702e-05
0.000304121
-1.51645e-05
0.000305528
-1.47373e-05
0.00030691
-1.42888e-05
0.000308268
-1.3819e-05
0.000309604
-1.33278e-05
0.000310921
-1.28156e-05
0.00031222
-1.22827e-05
0.000313506
-1.17294e-05
0.000314782
-1.11566e-05
0.000316053
-1.05651e-05
0.000317324
-9.95616e-06
0.0003186
-9.33122e-06
0.00031989
-8.69216e-06
0.000321198
-8.04121e-06
0.000322532
-7.38104e-06
0.0003239
-6.71472e-06
0.00032531
-6.04579e-06
0.000326767
-5.37815e-06
0.00032828
-4.71612e-06
0.000329853
-4.06425e-06
0.000331491
-3.42731e-06
0.000333199
-2.81005e-06
0.000334978
-2.21719e-06
0.000336829
-1.65288e-06
0.000338746
-1.12064e-06
0.000340724
-6.23964e-07
0.000342755
-1.65397e-07
2.53611e-07
0.000344828
0.000240282
-1.85371e-06
0.000240593
-3.71582e-06
0.000241052
-5.35746e-06
0.000241644
-6.82926e-06
0.00024236
-8.16011e-06
0.000243189
-9.36834e-06
0.000244121
-1.04694e-05
0.000245147
-1.14765e-05
0.000246261
-1.24007e-05
0.000247454
-1.3251e-05
0.00024872
-1.40349e-05
0.000250054
-1.47587e-05
0.000251451
-1.54276e-05
0.000252904
-1.60463e-05
0.000254409
-1.66184e-05
0.000255962
-1.71473e-05
0.00025756
-1.76358e-05
0.000259197
-1.80862e-05
0.00026087
-1.85006e-05
0.000262577
-1.88809e-05
0.000264313
-1.92285e-05
0.000266076
-1.95448e-05
0.000267861
-1.98311e-05
0.000269668
-2.00883e-05
0.000271492
-2.03173e-05
0.000273331
-2.0519e-05
0.000275183
-2.0694e-05
0.000277044
-2.08431e-05
0.000278913
-2.09667e-05
0.000280787
-2.10653e-05
0.000282664
-2.11395e-05
0.00028454
-2.11896e-05
0.000286416
-2.12159e-05
0.000288287
-2.12188e-05
0.000290152
-2.11986e-05
0.00029201
-2.11556e-05
0.000293858
-2.10899e-05
0.000295694
-2.10018e-05
0.000297516
-2.08915e-05
0.000299324
-2.07592e-05
0.000301115
-2.0605e-05
0.000302888
-2.04289e-05
0.000304641
-2.02312e-05
0.000306373
-2.0012e-05
0.000308084
-1.97713e-05
0.000309771