/*--------------------------------*- C++ -*----------------------------------*\
| =========                 |                                                 |
| \\      /  F ield         | OpenFOAM: The Open Source CFD Toolbox           |
|  \\    /   O peration     | Version:  2106                                  |
|   \\  /    A nd           | Website:  www.openfoam.com                      |
|    \\/     M anipulation  |                                                 |
\*---------------------------------------------------------------------------*/
FoamFile
{
    version     2.0;
    format      ascii;
    arch        "LSB;label=32;scalar=64";
    class       volScalarField;
    location    "5.8";
    object      T;
}
// * * * * * * * * * * * * * * * * * * * * * * * * * * * * * * * * * * * * * //

dimensions      [0 0 0 1 0 0 0];

internalField   nonuniform List<scalar> 
12013
(
300.003
300.01
300.017
300.024
300.032
300.04
300.048
300.056
300.065
300.074
300.084
300.094
300.105
300.115
300.127
300.138
300.15
300.163
300.176
300.189
300.203
300.218
300.233
300.248
300.264
300.281
300.298
300.316
300.334
300.353
300.372
300.392
300.413
300.435
300.457
300.479
300.503
300.527
300.552
300.577
300.603
300.631
300.658
300.687
300.717
300.747
300.778
300.81
300.843
300.877
300.912
300.948
300.985
301.023
301.062
301.102
301.144
301.186
301.23
301.275
301.322
301.37
301.419
301.47
301.523
301.578
301.634
301.693
301.753
301.816
301.882
301.951
302.023
302.098
302.178
302.263
302.354
302.453
302.562
302.686
302.834
300.003
300.01
300.017
300.024
300.032
300.04
300.048
300.056
300.065
300.074
300.084
300.094
300.105
300.115
300.127
300.138
300.15
300.163
300.176
300.189
300.203
300.218
300.233
300.248
300.264
300.281
300.298
300.316
300.334
300.353
300.372
300.392
300.413
300.435
300.457
300.479
300.503
300.527
300.552
300.577
300.603
300.63
300.658
300.687
300.716
300.747
300.778
300.81
300.843
300.877
300.912
300.948
300.985
301.023
301.062
301.102
301.143
301.186
301.23
301.275
301.321
301.369
301.419
301.47
301.522
301.577
301.633
301.692
301.752
301.815
301.881
301.949
302.02
302.096
302.175
302.259
302.348
302.445
302.549
302.665
302.791
300.003
300.01
300.017
300.024
300.032
300.04
300.048
300.056
300.065
300.074
300.084
300.094
300.105
300.115
300.127
300.138
300.15
300.163
300.176
300.189
300.203
300.218
300.233
300.248
300.264
300.281
300.298
300.316
300.334
300.353
300.372
300.392
300.413
300.434
300.456
300.479
300.503
300.527
300.551
300.577
300.603
300.63
300.658
300.687
300.716
300.747
300.778
300.81
300.843
300.877
300.912
300.947
300.984
301.022
301.061
301.101
301.143
301.185
301.229
301.274
301.32
301.368
301.417
301.468
301.521
301.575
301.631
301.689
301.749
301.812
301.877
301.945
302.015
302.089
302.167
302.249
302.336
302.428
302.525
302.629
302.737
300.003
300.01
300.017
300.024
300.032
300.04
300.048
300.056
300.065
300.074
300.084
300.094
300.105
300.115
300.127
300.138
300.15
300.163
300.176
300.189
300.203
300.218
300.233
300.248
300.264
300.281
300.298
300.316
300.334
300.353
300.372
300.392
300.413
300.434
300.456
300.479
300.502
300.526
300.551
300.577
300.603
300.63
300.658
300.687
300.716
300.746
300.777
300.809
300.842
300.876
300.911
300.947
300.984
301.021
301.06
301.1
301.142
301.184
301.228
301.272
301.319
301.366
301.415
301.466
301.518
301.572
301.628
301.685
301.745
301.807
301.871
301.937
302.007
302.079
302.155
302.234
302.316
302.403
302.493
302.586
302.679
300.003
300.01
300.017
300.024
300.032
300.04
300.048
300.056
300.065
300.074
300.084
300.094
300.104
300.115
300.127
300.138
300.15
300.163
300.176
300.189
300.203
300.218
300.233
300.248
300.264
300.281
300.298
300.316
300.334
300.353
300.372
300.392
300.413
300.434
300.456
300.479
300.502
300.526
300.551
300.577
300.603
300.63
300.658
300.686
300.715
300.746
300.777
300.809
300.842
300.875
300.91
300.946
300.983
301.02
301.059
301.099
301.14
301.182
301.226
301.27
301.316
301.364
301.412
301.462
301.514
301.568
301.623
301.68
301.738
301.799
301.862
301.927
301.995
302.065
302.138
302.213
302.291
302.372
302.454
302.537
302.62
300.003
300.01
300.017
300.024
300.032
300.04
300.048
300.056
300.065
300.074
300.084
300.094
300.104
300.115
300.126
300.138
300.15
300.163
300.176
300.189
300.203
300.218
300.233
300.248
300.264
300.281
300.298
300.315
300.334
300.352
300.372
300.392
300.413
300.434
300.456
300.479
300.502
300.526
300.551
300.576
300.602
300.629
300.657
300.686
300.715
300.745
300.776
300.808
300.841
300.874
300.909
300.945
300.981
301.019
301.057
301.097
301.138
301.18
301.223
301.267
301.313
301.36
301.408
301.458
301.509
301.562
301.616
301.672
301.73
301.789
301.851
301.914
301.98
302.047
302.116
302.188
302.261
302.336
302.411
302.486
302.561
300.003
300.01
300.017
300.024
300.032
300.04
300.048
300.056
300.065
300.074
300.084
300.094
300.104
300.115
300.126
300.138
300.15
300.163
300.176
300.189
300.203
300.218
300.232
300.248
300.264
300.28
300.298
300.315
300.333
300.352
300.372
300.392
300.412
300.434
300.456
300.478
300.501
300.525
300.55
300.576
300.602
300.629
300.656
300.685
300.714
300.744
300.775
300.807
300.839
300.873
300.907
300.943
300.979
301.017
301.055
301.094
301.135
301.177
301.219
301.263
301.309
301.355
301.403
301.452
301.502
301.554
301.607
301.662
301.719
301.777
301.836
301.898
301.96
302.025
302.091
302.158
302.226
302.295
302.365
302.433
302.501
300.003
300.01
300.017
300.024
300.032
300.04
300.048
300.056
300.065
300.074
300.084
300.094
300.104
300.115
300.126
300.138
300.15
300.163
300.176
300.189
300.203
300.217
300.232
300.248
300.264
300.28
300.297
300.315
300.333
300.352
300.371
300.391
300.412
300.433
300.455
300.478
300.501
300.525
300.55
300.575
300.601
300.628
300.655
300.684
300.713
300.743
300.774
300.805
300.838
300.871
300.905
300.941
300.977
301.014
301.052
301.091
301.131
301.173
301.215
301.258
301.303
301.349
301.396
301.444
301.494
301.545
301.597
301.65
301.705
301.761
301.819
301.878
301.938
301.999
302.061
302.125
302.188
302.252
302.316
302.379
302.44
300.003
300.01
300.017
300.024
300.032
300.04
300.048
300.056
300.065
300.074
300.084
300.094
300.104
300.115
300.126
300.138
300.15
300.163
300.175
300.189
300.203
300.217
300.232
300.248
300.264
300.28
300.297
300.315
300.333
300.352
300.371
300.391
300.412
300.433
300.455
300.477
300.5
300.524
300.549
300.574
300.6
300.627
300.654
300.682
300.711
300.741
300.772
300.803
300.836
300.869
300.903
300.938
300.974
301.011
301.048
301.087
301.127
301.168
301.209
301.252
301.296
301.341
301.387
301.435
301.483
301.533
301.584
301.636
301.689
301.743
301.798
301.855
301.912
301.97
302.029
302.088
302.147
302.206
302.265
302.323
302.38
300.003
300.01
300.017
300.024
300.032
300.04
300.048
300.056
300.065
300.074
300.084
300.094
300.104
300.115
300.126
300.138
300.15
300.162
300.175
300.189
300.203
300.217
300.232
300.247
300.263
300.28
300.297
300.314
300.333
300.351
300.371
300.39
300.411
300.432
300.454
300.476
300.499
300.523
300.548
300.573
300.599
300.625
300.653
300.681
300.71
300.739
300.77
300.801
300.833
300.866
300.9
300.934
300.97
301.006
301.044
301.082
301.121
301.161
301.203
301.245
301.288
301.332
301.377
301.424
301.471
301.519
301.568
301.619
301.67
301.722
301.775
301.828
301.883
301.937
301.992
302.048
302.103
302.158
302.212
302.266
302.318
300.003
300.01
300.017
300.024
300.032
300.039
300.048
300.056
300.065
300.074
300.084
300.094
300.104
300.115
300.126
300.138
300.15
300.162
300.175
300.189
300.202
300.217
300.232
300.247
300.263
300.279
300.296
300.314
300.332
300.351
300.37
300.39
300.41
300.431
300.453
300.475
300.498
300.522
300.546
300.571
300.597
300.624
300.651
300.679
300.707
300.737
300.767
300.798
300.83
300.863
300.896
300.93
300.965
301.001
301.038
301.076
301.115
301.154
301.194
301.236
301.278
301.321
301.365
301.41
301.456
301.503
301.55
301.599
301.648
301.698
301.748
301.799
301.85
301.902
301.954
302.005
302.057
302.108
302.158
302.208
302.256
300.003
300.01
300.017
300.024
300.032
300.039
300.048
300.056
300.065
300.074
300.084
300.094
300.104
300.115
300.126
300.138
300.15
300.162
300.175
300.188
300.202
300.217
300.231
300.247
300.263
300.279
300.296
300.313
300.331
300.35
300.369
300.389
300.409
300.43
300.452
300.474
300.497
300.521
300.545
300.57
300.595
300.622
300.649
300.676
300.705
300.734
300.764
300.795
300.826
300.858
300.891
300.925
300.96
300.995
301.032
301.069
301.107
301.145
301.185
301.225
301.267
301.309
301.351
301.395
301.439
301.484
301.53
301.576
301.623
301.671
301.719
301.767
301.815
301.864
301.912
301.961
302.008
302.056
302.103
302.149
302.194
300.003
300.01
300.017
300.024
300.032
300.039
300.048
300.056
300.065
300.074
300.084
300.094
300.104
300.115
300.126
300.137
300.149
300.162
300.175
300.188
300.202
300.216
300.231
300.246
300.262
300.278
300.295
300.313
300.331
300.349
300.368
300.388
300.408
300.429
300.451
300.473
300.496
300.519
300.543
300.568
300.593
300.619
300.646
300.674
300.702
300.731
300.76
300.791
300.822
300.853
300.886
300.919
300.953
300.988
301.024
301.06
301.097
301.135
301.174
301.213
301.253
301.294
301.335
301.377
301.42
301.463
301.507
301.552
301.596
301.641
301.687
301.732
301.778
301.823
301.869
301.914
301.959
302.003
302.046
302.089
302.131
300.003
300.01
300.017
300.024
300.032
300.039
300.047
300.056
300.065
300.074
300.083
300.093
300.104
300.114
300.126
300.137
300.149
300.161
300.174
300.188
300.201
300.216
300.23
300.246
300.262
300.278
300.295
300.312
300.33
300.348
300.367
300.387
300.407
300.428
300.449
300.471
300.494
300.517
300.541
300.565
300.591
300.616
300.643
300.67
300.698
300.727
300.756
300.786
300.816
300.848
300.88
300.912
300.946
300.98
301.015
301.05
301.086
301.123
301.161
301.199
301.238
301.277
301.317
301.358
301.399
301.44
301.482
301.524
301.567
301.609
301.652
301.695
301.738
301.781
301.823
301.865
301.907
301.948
301.989
302.029
302.068
300.003
300.01
300.017
300.024
300.031
300.039
300.047
300.056
300.065
300.074
300.083
300.093
300.104
300.114
300.125
300.137
300.149
300.161
300.174
300.187
300.201
300.215
300.23
300.245
300.261
300.277
300.294
300.311
300.329
300.347
300.366
300.386
300.406
300.426
300.447
300.469
300.492
300.515
300.538
300.563
300.588
300.613
300.639
300.666
300.694
300.722
300.751
300.78
300.81
300.841
300.872
300.904
300.937
300.97
301.004
301.039
301.074
301.11
301.146
301.183
301.221
301.259
301.297
301.336
301.375
301.415
301.455
301.495
301.535
301.575
301.616
301.656
301.696
301.736
301.776
301.815
301.854
301.893
301.931
301.968
302.005
300.003
300.01
300.017
300.024
300.031
300.039
300.047
300.056
300.065
300.074
300.083
300.093
300.103
300.114
300.125
300.136
300.148
300.161
300.173
300.187
300.2
300.215
300.229
300.244
300.26
300.276
300.293
300.31
300.328
300.346
300.365
300.384
300.404
300.424
300.445
300.467
300.489
300.512
300.535
300.559
300.584
300.609
300.635
300.661
300.689
300.716
300.744
300.773
300.803
300.833
300.864
300.895
300.927
300.959
300.993
301.026
301.06
301.095
301.13
301.166
301.202
301.238
301.275
301.312
301.349
301.387
301.425
301.463
301.501
301.539
301.577
301.615
301.652
301.69
301.727
301.764
301.8
301.836
301.871
301.906
301.941
300.003
300.01
300.017
300.024
300.031
300.039
300.047
300.056
300.064
300.073
300.083
300.093
300.103
300.114
300.125
300.136
300.148
300.16
300.173
300.186
300.2
300.214
300.228
300.243
300.259
300.275
300.292
300.309
300.326
300.344
300.363
300.382
300.402
300.422
300.443
300.464
300.486
300.509
300.532
300.556
300.58
300.605
300.63
300.656
300.683
300.71
300.738
300.766
300.795
300.824
300.854
300.885
300.916
300.947
300.979
301.012
301.045
301.078
301.112
301.146
301.181
301.215
301.251
301.286
301.321
301.357
301.393
301.429
301.465
301.5
301.536
301.572
301.607
301.642
301.677
301.711
301.745
301.779
301.812
301.844
301.876
300.003
300.01
300.017
300.024
300.031
300.039
300.047
300.055
300.064
300.073
300.083
300.092
300.103
300.113
300.124
300.136
300.147
300.16
300.172
300.185
300.199
300.213
300.227
300.242
300.258
300.274
300.29
300.307
300.325
300.342
300.361
300.38
300.399
300.419
300.44
300.461
300.483
300.505
300.528
300.551
300.575
300.599
300.624
300.65
300.676
300.702
300.73
300.757
300.785
300.814
300.843
300.873
300.903
300.933
300.964
300.996
301.027
301.059
301.092
301.125
301.158
301.191
301.224
301.258
301.292
301.325
301.359
301.393
301.427
301.46
301.494
301.527
301.56
301.593
301.626
301.658
301.689
301.721
301.752
301.782
301.812
300.003
300.01
300.017
300.024
300.031
300.039
300.047
300.055
300.064
300.073
300.082
300.092
300.102
300.113
300.124
300.135
300.147
300.159
300.172
300.185
300.198
300.212
300.226
300.241
300.257
300.272
300.289
300.305
300.323
300.34
300.359
300.377
300.397
300.416
300.437
300.458
300.479
300.501
300.523
300.546
300.569
300.593
300.618
300.643
300.668
300.694
300.721
300.747
300.775
300.803
300.831
300.86
300.889
300.918
300.948
300.978
301.008
301.039
301.07
301.101
301.133
301.164
301.196
301.228
301.26
301.292
301.324
301.355
301.387
301.419
301.45
301.481
301.512
301.543
301.573
301.603
301.633
301.662
301.691
301.719
301.747
300.003
300.01
300.017
300.024
300.031
300.039
300.047
300.055
300.064
300.073
300.082
300.092
300.102
300.112
300.123
300.134
300.146
300.158
300.171
300.184
300.197
300.211
300.225
300.24
300.255
300.271
300.287
300.303
300.32
300.338
300.356
300.374
300.393
300.413
300.433
300.453
300.474
300.496
300.518
300.54
300.563
300.587
300.61
300.635
300.66
300.685
300.711
300.737
300.763
300.79
300.817
300.845
300.873
300.901
300.93
300.959
300.988
301.017
301.047
301.077
301.106
301.136
301.166
301.196
301.227
301.257
301.287
301.316
301.346
301.376
301.405
301.434
301.463
301.492
301.52
301.548
301.576
301.603
301.63
301.657
301.683
300.003
300.01
300.016
300.024
300.031
300.038
300.046
300.055
300.063
300.072
300.082
300.091
300.101
300.112
300.123
300.134
300.145
300.157
300.17
300.183
300.196
300.209
300.224
300.238
300.253
300.269
300.285
300.301
300.318
300.335
300.353
300.371
300.39
300.409
300.429
300.449
300.469
300.49
300.512
300.534
300.556
300.579
300.602
300.626
300.65
300.674
300.699
300.725
300.75
300.776
300.802
300.829
300.856
300.883
300.91
300.938
300.966
300.994
301.022
301.05
301.078
301.107
301.135
301.163
301.192
301.22
301.248
301.276
301.304
301.332
301.359
301.387
301.414
301.44
301.467
301.493
301.519
301.544
301.569
301.594
301.618
300.003
300.01
300.016
300.023
300.031
300.038
300.046
300.054
300.063
300.072
300.081
300.091
300.101
300.111
300.122
300.133
300.144
300.156
300.169
300.181
300.194
300.208
300.222
300.236
300.251
300.266
300.282
300.298
300.315
300.332
300.349
300.367
300.386
300.404
300.424
300.443
300.464
300.484
300.505
300.526
300.548
300.57
300.593
300.616
300.639
300.663
300.687
300.711
300.736
300.761
300.786
300.812
300.837
300.863
300.89
300.916
300.942
300.969
300.995
301.022
301.049
301.076
301.102
301.129
301.156
301.182
301.209
301.235
301.261
301.287
301.313
301.338
301.363
301.388
301.413
301.438
301.462
301.485
301.509
301.532
301.555
300.003
300.01
300.016
300.023
300.03
300.038
300.046
300.054
300.063
300.071
300.081
300.09
300.1
300.11
300.121
300.132
300.143
300.155
300.167
300.18
300.193
300.206
300.22
300.234
300.249
300.264
300.279
300.295
300.311
300.328
300.345
300.363
300.381
300.399
300.418
300.437
300.457
300.477
300.498
300.518
300.54
300.561
300.583
300.605
300.628
300.651
300.674
300.697
300.721
300.745
300.769
300.793
300.818
300.842
300.867
300.892
300.917
300.942
300.968
300.993
301.018
301.043
301.068
301.094
301.119
301.143
301.168
301.193
301.217
301.241
301.266
301.289
301.313
301.336
301.359
301.382
301.404
301.427
301.448
301.47
301.491
300.003
300.01
300.016
300.023
300.03
300.038
300.046
300.054
300.062
300.071
300.08
300.089
300.099
300.109
300.12
300.131
300.142
300.154
300.166
300.178
300.191
300.204
300.218
300.232
300.246
300.261
300.276
300.292
300.308
300.324
300.341
300.358
300.376
300.394
300.412
300.431
300.45
300.469
300.489
300.509
300.53
300.551
300.572
300.593
300.615
300.637
300.659
300.682
300.704
300.727
300.75
300.773
300.797
300.82
300.844
300.868
300.891
300.915
300.939
300.963
300.986
301.01
301.034
301.057
301.081
301.104
301.127
301.15
301.173
301.196
301.218
301.24
301.262
301.284
301.305
301.327
301.347
301.368
301.388
301.409
301.428
300.003
300.009
300.016
300.023
300.03
300.037
300.045
300.053
300.062
300.07
300.079
300.089
300.098
300.108
300.119
300.13
300.141
300.152
300.164
300.176
300.189
300.202
300.215
300.229
300.243
300.258
300.273
300.288
300.304
300.32
300.336
300.353
300.37
300.388
300.405
300.424
300.442
300.461
300.48
300.5
300.519
300.54
300.56
300.581
300.601
300.622
300.644
300.665
300.687
300.709
300.731
300.753
300.775
300.797
300.819
300.842
300.864
300.887
300.909
300.931
300.954
300.976
300.998
301.02
301.042
301.064
301.085
301.107
301.128
301.149
301.17
301.191
301.212
301.232
301.252
301.272
301.291
301.31
301.329
301.348
301.366
300.003
300.009
300.016
300.023
300.03
300.037
300.045
300.053
300.061
300.07
300.079
300.088
300.097
300.107
300.118
300.128
300.139
300.15
300.162
300.174
300.187
300.199
300.212
300.226
300.24
300.254
300.269
300.284
300.299
300.315
300.331
300.347
300.364
300.381
300.398
300.416
300.434
300.452
300.47
300.489
300.508
300.528
300.547
300.567
300.587
300.607
300.627
300.648
300.668
300.689
300.71
300.731
300.752
300.773
300.794
300.815
300.836
300.857
300.878
300.899
300.92
300.941
300.962
300.983
301.003
301.023
301.044
301.064
301.084
301.103
301.123
301.142
301.161
301.18
301.199
301.217
301.235
301.253
301.271
301.288
301.306
300.003
300.009
300.016
300.022
300.029
300.037
300.044
300.052
300.06
300.069
300.078
300.087
300.096
300.106
300.116
300.127
300.137
300.148
300.16
300.172
300.184
300.197
300.209
300.223
300.236
300.25
300.264
300.279
300.294
300.309
300.325
300.341
300.357
300.373
300.39
300.407
300.424
300.442
300.46
300.478
300.496
300.515
300.533
300.552
300.571
300.591
300.61
300.629
300.649
300.669
300.688
300.708
300.728
300.748
300.768
300.788
300.808
300.827
300.847
300.867
300.887
300.906
300.926
300.945
300.964
300.983
301.002
301.021
301.039
301.058
301.076
301.094
301.112
301.129
301.147
301.164
301.181
301.197
301.214
301.23
301.246
300.003
300.009
300.016
300.022
300.029
300.036
300.044
300.052
300.06
300.068
300.077
300.086
300.095
300.105
300.115
300.125
300.135
300.146
300.158
300.169
300.181
300.193
300.206
300.219
300.232
300.246
300.26
300.274
300.288
300.303
300.318
300.334
300.349
300.365
300.381
300.398
300.415
300.432
300.449
300.466
300.484
300.501
300.519
300.537
300.555
300.574
300.592
300.61
300.629
300.648
300.666
300.685
300.704
300.723
300.741
300.76
300.779
300.797
300.816
300.834
300.853
300.871
300.889
300.907
300.925
300.943
300.961
300.978
300.995
301.013
301.029
301.046
301.063
301.079
301.095
301.111
301.127
301.143
301.158
301.173
301.188
300.003
300.009
300.015
300.022
300.029
300.036
300.043
300.051
300.059
300.067
300.076
300.084
300.094
300.103
300.113
300.123
300.133
300.144
300.155
300.166
300.178
300.19
300.202
300.215
300.228
300.241
300.255
300.268
300.282
300.297
300.311
300.326
300.341
300.357
300.372
300.388
300.404
300.42
300.437
300.453
300.47
300.487
300.504
300.521
300.539
300.556
300.573
300.591
300.609
300.626
300.644
300.661
300.679
300.697
300.714
300.732
300.75
300.767
300.784
300.802
300.819
300.836
300.853
300.87
300.887
300.903
300.92
300.936
300.952
300.968
300.984
301
301.015
301.03
301.045
301.06
301.075
301.09
301.104
301.118
301.132
300.003
300.009
300.015
300.022
300.028
300.035
300.043
300.05
300.058
300.066
300.074
300.083
300.092
300.101
300.111
300.121
300.131
300.142
300.152
300.163
300.175
300.186
300.198
300.211
300.223
300.236
300.249
300.263
300.276
300.29
300.304
300.319
300.333
300.348
300.363
300.378
300.393
300.409
300.425
300.441
300.457
300.473
300.489
300.505
300.522
300.538
300.555
300.571
300.588
300.604
300.621
300.638
300.654
300.671
300.688
300.704
300.721
300.737
300.753
300.769
300.786
300.802
300.817
300.833
300.849
300.864
300.88
300.895
300.91
300.925
300.94
300.954
300.969
300.983
300.997
301.011
301.025
301.038
301.051
301.065
301.077
300.003
300.009
300.015
300.021
300.028
300.035
300.042
300.049
300.057
300.065
300.073
300.082
300.09
300.1
300.109
300.119
300.129
300.139
300.149
300.16
300.171
300.183
300.194
300.206
300.218
300.231
300.243
300.256
300.27
300.283
300.297
300.31
300.324
300.339
300.353
300.368
300.382
300.397
300.412
300.427
300.442
300.458
300.473
300.489
300.504
300.52
300.536
300.551
300.567
300.583
300.598
300.614
300.63
300.645
300.661
300.676
300.692
300.707
300.723
300.738
300.753
300.768
300.783
300.797
300.812
300.827
300.841
300.855
300.869
300.883
300.897
300.911
300.924
300.937
300.95
300.963
300.976
300.989
301.001
301.013
301.025
300.003
300.009
300.015
300.021
300.027
300.034
300.041
300.048
300.056
300.064
300.072
300.08
300.089
300.098
300.107
300.116
300.126
300.136
300.146
300.157
300.168
300.179
300.19
300.201
300.213
300.225
300.238
300.25
300.263
300.276
300.289
300.302
300.315
300.329
300.343
300.357
300.371
300.385
300.399
300.414
300.428
300.443
300.458
300.472
300.487
300.502
300.517
300.531
300.546
300.561
300.576
300.591
300.605
300.62
300.635
300.649
300.664
300.678
300.693
300.707
300.721
300.735
300.749
300.763
300.777
300.79
300.804
300.817
300.83
300.843
300.856
300.869
300.881
300.894
300.906
300.918
300.93
300.942
300.953
300.965
300.976
300.003
300.008
300.014
300.02
300.027
300.033
300.04
300.047
300.055
300.062
300.07
300.079
300.087
300.096
300.105
300.114
300.123
300.133
300.143
300.153
300.164
300.174
300.185
300.197
300.208
300.22
300.232
300.244
300.256
300.268
300.281
300.294
300.306
300.32
300.333
300.346
300.36
300.373
300.387
300.4
300.414
300.428
300.442
300.456
300.47
300.484
300.498
300.512
300.526
300.54
300.554
300.568
300.582
300.596
300.61
300.623
300.637
300.65
300.664
300.677
300.691
300.704
300.717
300.73
300.743
300.755
300.768
300.78
300.793
300.805
300.817
300.829
300.841
300.852
300.864
300.875
300.886
300.897
300.908
300.919
300.929
300.003
300.008
300.014
300.02
300.026
300.033
300.04
300.047
300.054
300.061
300.069
300.077
300.085
300.094
300.102
300.111
300.121
300.13
300.14
300.15
300.16
300.17
300.181
300.192
300.203
300.214
300.225
300.237
300.249
300.261
300.273
300.285
300.298
300.31
300.323
300.335
300.348
300.361
300.374
300.387
300.401
300.414
300.427
300.44
300.453
300.467
300.48
300.493
300.507
300.52
300.533
300.546
300.559
300.572
300.585
300.598
300.611
300.624
300.637
300.649
300.662
300.674
300.686
300.699
300.711
300.723
300.734
300.746
300.758
300.769
300.78
300.791
300.802
300.813
300.824
300.835
300.845
300.856
300.866
300.876
300.886
300.003
300.008
300.014
300.02
300.026
300.032
300.039
300.046
300.053
300.06
300.067
300.075
300.083
300.092
300.1
300.109
300.118
300.127
300.136
300.146
300.156
300.166
300.176
300.187
300.198
300.208
300.219
300.231
300.242
300.253
300.265
300.277
300.289
300.301
300.313
300.325
300.337
300.35
300.362
300.375
300.387
300.4
300.413
300.425
300.438
300.45
300.463
300.476
300.488
300.501
300.513
300.526
300.538
300.551
300.563
300.575
300.587
300.599
300.611
300.623
300.635
300.647
300.658
300.67
300.681
300.692
300.703
300.714
300.725
300.736
300.747
300.757
300.767
300.778
300.788
300.798
300.808
300.817
300.827
300.836
300.846
300.003
300.008
300.013
300.019
300.025
300.031
300.038
300.045
300.052
300.059
300.066
300.074
300.081
300.09
300.098
300.106
300.115
300.124
300.133
300.143
300.152
300.162
300.172
300.182
300.193
300.203
300.214
300.225
300.235
300.247
300.258
300.269
300.281
300.292
300.304
300.316
300.327
300.339
300.351
300.363
300.375
300.387
300.399
300.411
300.423
300.435
300.447
300.459
300.471
300.483
300.495
300.507
300.519
300.53
300.542
300.554
300.565
300.577
300.588
300.599
300.61
300.621
300.632
300.643
300.654
300.665
300.675
300.685
300.696
300.706
300.716
300.726
300.736
300.745
300.755
300.764
300.774
300.783
300.792
300.801
300.809
300.003
300.008
300.013
300.019
300.025
300.031
300.037
300.044
300.05
300.057
300.065
300.072
300.08
300.088
300.096
300.104
300.113
300.121
300.13
300.139
300.149
300.158
300.168
300.178
300.188
300.198
300.208
300.219
300.229
300.24
300.251
300.262
300.273
300.284
300.295
300.307
300.318
300.329
300.341
300.352
300.364
300.375
300.387
300.398
300.41
300.422
300.433
300.444
300.456
300.467
300.479
300.49
300.501
300.512
300.524
300.535
300.546
300.556
300.567
300.578
300.589
300.599
300.609
300.62
300.63
300.64
300.65
300.66
300.67
300.679
300.689
300.698
300.708
300.717
300.726
300.735
300.744
300.752
300.761
300.769
300.778
300.003
300.008
300.013
300.019
300.024
300.03
300.036
300.043
300.05
300.056
300.063
300.071
300.078
300.086
300.094
300.102
300.11
300.119
300.128
300.137
300.146
300.155
300.164
300.174
300.184
300.194
300.204
300.214
300.224
300.235
300.245
300.256
300.266
300.277
300.288
300.299
300.31
300.321
300.332
300.343
300.354
300.365
300.376
300.388
300.399
300.41
300.421
300.432
300.443
300.454
300.465
300.476
300.486
300.497
300.508
300.518
300.529
300.539
300.55
300.56
300.57
300.58
300.59
300.6
300.61
300.619
300.629
300.638
300.648
300.657
300.666
300.675
300.684
300.693
300.701
300.71
300.718
300.727
300.735
300.743
300.751
300.002
300.008
300.013
300.018
300.024
300.03
300.036
300.042
300.049
300.055
300.062
300.07
300.077
300.085
300.092
300.1
300.108
300.117
300.125
300.134
300.143
300.152
300.161
300.171
300.18
300.19
300.2
300.21
300.22
300.23
300.24
300.251
300.261
300.272
300.282
300.293
300.303
300.314
300.325
300.336
300.346
300.357
300.368
300.379
300.389
300.4
300.411
300.422
300.432
300.443
300.453
300.464
300.474
300.485
300.495
300.505
300.516
300.526
300.536
300.545
300.555
300.565
300.575
300.584
300.594
300.603
300.612
300.621
300.63
300.639
300.648
300.657
300.665
300.674
300.682
300.69
300.698
300.706
300.714
300.722
300.73
300.002
300.007
300.013
300.018
300.024
300.029
300.035
300.042
300.048
300.055
300.062
300.069
300.076
300.083
300.091
300.099
300.107
300.115
300.124
300.132
300.141
300.15
300.159
300.168
300.178
300.187
300.197
300.207
300.217
300.227
300.237
300.247
300.257
300.267
300.278
300.288
300.299
300.309
300.32
300.33
300.341
300.351
300.362
300.372
300.383
300.393
300.404
300.414
300.425
300.435
300.446
300.456
300.466
300.476
300.486
300.496
300.506
300.516
300.526
300.535
300.545
300.554
300.564
300.573
300.582
300.591
300.6
300.609
300.618
300.627
300.635
300.644
300.652
300.66
300.668
300.676
300.684
300.692
300.7
300.707
300.715
300.002
300.007
300.013
300.018
300.023
300.029
300.035
300.041
300.048
300.054
300.061
300.068
300.075
300.083
300.091
300.098
300.106
300.115
300.123
300.131
300.14
300.149
300.158
300.167
300.177
300.186
300.196
300.205
300.215
300.225
300.235
300.245
300.255
300.265
300.275
300.286
300.296
300.306
300.317
300.327
300.338
300.348
300.359
300.369
300.379
300.39
300.4
300.411
300.421
300.431
300.441
300.451
300.461
300.471
300.481
300.491
300.501
300.511
300.52
300.53
300.539
300.549
300.558
300.567
300.576
300.585
300.594
300.603
300.611
300.62
300.628
300.637
300.645
300.653
300.661
300.669
300.677
300.685
300.692
300.7
300.707
303.029
303.159
303.236
303.309
303.372
303.424
303.459
303.499
303.539
303.576
303.608
303.642
303.677
303.711
303.745
303.778
303.809
303.837
303.867
303.897
303.926
303.956
303.985
304.014
304.044
304.072
304.1
304.128
304.156
304.183
304.21
304.237
304.264
304.29
304.316
304.342
304.368
304.393
304.418
304.443
304.468
304.492
304.517
304.545
304.571
304.596
304.619
304.645
304.671
304.696
304.721
304.743
304.767
304.792
304.817
304.843
304.869
304.894
304.92
304.943
304.964
304.987
305.01
305.034
305.058
305.083
305.107
305.131
305.155
305.179
305.202
305.225
305.248
305.271
305.293
305.316
305.338
305.361
305.382
305.406
305.433
305.457
305.479
305.501
305.521
305.54
305.563
305.588
305.61
305.63
305.649
305.67
305.694
305.714
305.737
305.76
305.782
305.801
305.823
305.844
305.862
305.882
305.9
305.92
305.941
305.963
305.982
305.997
306.016
306.031
306.049
306.068
306.087
306.106
306.123
306.136
306.152
306.169
306.186
306.2
306.211
306.224
306.238
306.251
306.264
306.272
306.282
306.292
306.302
306.311
306.318
306.325
306.33
306.334
306.337
306.338
306.338
306.337
306.334
306.329
306.323
306.314
306.304
306.292
306.277
306.26
306.241
306.218
306.192
306.162
306.124
306.085
306.046
306
305.95
305.891
305.829
305.722
305.625
305.503
305.344
302.928
303.042
303.13
303.206
303.271
303.327
303.373
303.417
303.459
303.498
303.535
303.571
303.607
303.642
303.677
303.711
303.743
303.774
303.804
303.835
303.865
303.895
303.925
303.955
303.985
304.014
304.042
304.071
304.099
304.127
304.154
304.182
304.209
304.235
304.262
304.288
304.314
304.34
304.365
304.391
304.416
304.441
304.467
304.494
304.52
304.545
304.57
304.595
304.621
304.646
304.671
304.695
304.719
304.744
304.769
304.795
304.821
304.846
304.871
304.895
304.918
304.941
304.964
304.988
305.013
305.037
305.061
305.086
305.11
305.134
305.157
305.181
305.204
305.227
305.25
305.273
305.295
305.318
305.34
305.364
305.39
305.414
305.436
305.458
305.479
305.5
305.522
305.546
305.569
305.59
305.61
305.631
305.654
305.675
305.698
305.721
305.743
305.763
305.785
305.805
305.824
305.844
305.863
305.883
305.904
305.925
305.944
305.961
305.979
305.996
306.014
306.032
306.051
306.07
306.087
306.102
306.118
306.134
306.151
306.165
306.177
306.191
306.204
306.217
306.23
306.239
306.249
306.259
306.269
306.278
306.285
306.292
306.297
306.301
306.304
306.306
306.306
306.305
306.302
306.297
306.291
306.282
306.272
306.26
306.245
306.228
306.209
306.186
306.16
306.129
306.092
306.053
306.012
305.966
305.913
305.854
305.786
305.683
305.58
305.452
305.278
302.846
302.945
303.032
303.107
303.174
303.232
303.284
303.331
303.376
303.418
303.457
303.496
303.533
303.57
303.605
303.64
303.673
303.706
303.738
303.769
303.8
303.831
303.862
303.892
303.922
303.952
303.981
304.01
304.039
304.067
304.095
304.123
304.15
304.177
304.204
304.231
304.257
304.283
304.309
304.335
304.361
304.387
304.413
304.439
304.465