/*--------------------------------*- C++ -*----------------------------------*\
| =========                 |                                                 |
| \\      /  F ield         | OpenFOAM: The Open Source CFD Toolbox           |
|  \\    /   O peration     | Version:  2106                                  |
|   \\  /    A nd           | Website:  www.openfoam.com                      |
|    \\/     M anipulation  |                                                 |
\*---------------------------------------------------------------------------*/
FoamFile
{
    version     2.0;
    format      ascii;
    arch        "LSB;label=32;scalar=64";
    class       volVectorField;
    location    "5.8";
    object      U;
}
// * * * * * * * * * * * * * * * * * * * * * * * * * * * * * * * * * * * * * //

dimensions      [0 1 -1 0 0 0 0];

internalField   nonuniform List<vector> 
12013
(
(0.100035 -9.90116e-06 0)
(0.100181 -1.83023e-05 0)
(0.100416 -2.60959e-05 0)
(0.10072 -3.32871e-05 0)
(0.101087 -4.00505e-05 0)
(0.101511 -4.64837e-05 0)
(0.101987 -5.26503e-05 0)
(0.10251 -5.86003e-05 0)
(0.103076 -6.43722e-05 0)
(0.103682 -6.99956e-05 0)
(0.104325 -7.54945e-05 0)
(0.105003 -8.08881e-05 0)
(0.105712 -8.61913e-05 0)
(0.106451 -9.14171e-05 0)
(0.107218 -9.65755e-05 0)
(0.10801 -0.000101674 0)
(0.108826 -0.000106719 0)
(0.109665 -0.000111716 0)
(0.110524 -0.000116667 0)
(0.111403 -0.000121574 0)
(0.1123 -0.00012644 0)
(0.113213 -0.000131263 0)
(0.114142 -0.000136044 0)
(0.115084 -0.000140781 0)
(0.11604 -0.000145471 0)
(0.117007 -0.000150112 0)
(0.117984 -0.0001547 0)
(0.118971 -0.000159232 0)
(0.119967 -0.000163701 0)
(0.120969 -0.000168103 0)
(0.121978 -0.000172431 0)
(0.122991 -0.000176678 0)
(0.124009 -0.000180836 0)
(0.12503 -0.000184898 0)
(0.126052 -0.000188853 0)
(0.127076 -0.000192692 0)
(0.128099 -0.000196403 0)
(0.129121 -0.000199973 0)
(0.130141 -0.00020339 0)
(0.131157 -0.000206638 0)
(0.132169 -0.0002097 0)
(0.133176 -0.000212559 0)
(0.134175 -0.000215195 0)
(0.135167 -0.000217583 0)
(0.13615 -0.000219699 0)
(0.137122 -0.000221515 0)
(0.138083 -0.000223 0)
(0.139031 -0.000224116 0)
(0.139965 -0.000224823 0)
(0.140883 -0.000225075 0)
(0.141783 -0.000224819 0)
(0.142665 -0.000223993 0)
(0.143526 -0.000222527 0)
(0.144363 -0.000220338 0)
(0.145176 -0.00021733 0)
(0.145961 -0.000213391 0)
(0.146716 -0.000208386 0)
(0.147439 -0.000202154 0)
(0.148125 -0.000194505 0)
(0.148771 -0.000185205 0)
(0.149372 -0.00017397 0)
(0.149925 -0.000160448 0)
(0.150422 -0.000144202 0)
(0.150857 -0.000124679 0)
(0.151222 -0.000101176 0)
(0.151507 -7.27798e-05 0)
(0.1517 -3.82959e-05 0)
(0.151785 3.87183e-06 0)
(0.151744 5.59161e-05 0)
(0.151552 0.000120951 0)
(0.151178 0.000203411 0)
(0.150578 0.000309817 0)
(0.149693 0.000450061 0)
(0.14844 0.000639635 0)
(0.146697 0.000903634 0)
(0.144284 0.00128414 0)
(0.14092 0.0018543 0)
(0.136138 0.00274904 0)
(0.129163 0.004259 0)
(0.118926 0.0072366 0)
(0.107176 0.015679 0)
(0.100033 -3.02306e-05 0)
(0.100178 -5.61142e-05 0)
(0.100412 -8.00493e-05 0)
(0.100715 -0.00010212 0)
(0.101081 -0.000122877 0)
(0.101504 -0.000142619 0)
(0.101979 -0.000161541 0)
(0.102501 -0.000179797 0)
(0.103066 -0.000197505 0)
(0.103672 -0.000214757 0)
(0.104314 -0.000231626 0)
(0.10499 -0.000248169 0)
(0.105698 -0.000264436 0)
(0.106436 -0.000280464 0)
(0.107202 -0.000296284 0)
(0.107993 -0.00031192 0)
(0.108808 -0.000327391 0)
(0.109645 -0.000342711 0)
(0.110503 -0.000357891 0)
(0.111381 -0.000372937 0)
(0.112276 -0.000387853 0)
(0.113188 -0.00040264 0)
(0.114115 -0.000417295 0)
(0.115056 -0.000431813 0)
(0.11601 -0.000446189 0)
(0.116975 -0.000460412 0)
(0.117951 -0.000474473 0)
(0.118936 -0.000488358 0)
(0.11993 -0.000502052 0)
(0.12093 -0.000515538 0)
(0.121937 -0.000528796 0)
(0.122949 -0.000541806 0)
(0.123964 -0.000554544 0)
(0.124983 -0.000566983 0)
(0.126003 -0.000579096 0)
(0.127025 -0.00059085 0)
(0.128046 -0.000602212 0)
(0.129065 -0.000613143 0)
(0.130083 -0.000623601 0)
(0.131097 -0.000633541 0)
(0.132106 -0.000642913 0)
(0.13311 -0.000651659 0)
(0.134107 -0.000659719 0)
(0.135096 -0.000667022 0)
(0.136076 -0.000673492 0)
(0.137046 -0.000679041 0)
(0.138004 -0.000683574 0)
(0.13895 -0.000686979 0)
(0.13988 -0.000689132 0)
(0.140796 -0.000689891 0)
(0.141693 -0.000689094 0)
(0.142572 -0.000686555 0)
(0.14343 -0.000682057 0)
(0.144265 -0.00067535 0)
(0.145075 -0.000666141 0)
(0.145858 -0.000654085 0)
(0.146611 -0.000638776 0)
(0.147331 -0.000619727 0)
(0.148015 -0.000596355 0)
(0.14866 -0.000567954 0)
(0.149261 -0.000533662 0)
(0.149813 -0.000492419 0)
(0.150311 -0.000442901 0)
(0.150749 -0.000383448 0)
(0.151117 -0.000311944 0)
(0.151408 -0.000225658 0)
(0.151609 -0.000121023 0)
(0.151707 6.70503e-06 0)
(0.151685 0.000163921 0)
(0.15152 0.000359655 0)
(0.151185 0.00060663 0)
(0.150642 0.00092329 0)
(0.149845 0.00133708 0)
(0.148729 0.00188994 0)
(0.147205 0.00264762 0)
(0.145156 0.00371568 0)
(0.142422 0.00526604 0)
(0.138781 0.00758097 0)
(0.133968 0.011127 0)
(0.127997 0.0165861 0)
(0.123106 0.0242995 0)
(0.10003 -5.13817e-05 0)
(0.100173 -9.62495e-05 0)
(0.100405 -0.000137473 0)
(0.100706 -0.000175473 0)
(0.101071 -0.000211204 0)
(0.101492 -0.000245181 0)
(0.101965 -0.000277741 0)
(0.102485 -0.000309152 0)
(0.103048 -0.000339617 0)
(0.103651 -0.000369295 0)
(0.104291 -0.000398311 0)
(0.104966 -0.000426765 0)
(0.105672 -0.000454742 0)
(0.106407 -0.000482305 0)
(0.10717 -0.000509508 0)
(0.107959 -0.000536393 0)
(0.108771 -0.000562993 0)
(0.109606 -0.000589332 0)
(0.110461 -0.000615427 0)
(0.111336 -0.00064129 0)
(0.112228 -0.000666927 0)
(0.113137 -0.00069234 0)
(0.114061 -0.000717524 0)
(0.114999 -0.000742471 0)
(0.115949 -0.00076717 0)
(0.116911 -0.000791606 0)
(0.117884 -0.000815759 0)
(0.118866 -0.000839608 0)
(0.119855 -0.000863125 0)
(0.120852 -0.000886282 0)
(0.121855 -0.000909046 0)
(0.122862 -0.000931379 0)
(0.123874 -0.000953242 0)
(0.124888 -0.000974589 0)
(0.125904 -0.000995372 0)
(0.126921 -0.00101554 0)
(0.127937 -0.00103502 0)
(0.128952 -0.00105376 0)
(0.129965 -0.00107169 0)
(0.130974 -0.00108873 0)
(0.131978 -0.00110478 0)
(0.132977 -0.00111976 0)
(0.133969 -0.00113355 0)
(0.134953 -0.00114604 0)
(0.135927 -0.0011571 0)
(0.136892 -0.00116657 0)
(0.137844 -0.0011743 0)
(0.138784 -0.00118009 0)
(0.139709 -0.00118373 0)
(0.140619 -0.00118498 0)
(0.141511 -0.00118357 0)
(0.142384 -0.00117917 0)
(0.143236 -0.00117141 0)
(0.144065 -0.00115988 0)
(0.14487 -0.00114408 0)
(0.145648 -0.00112342 0)
(0.146396 -0.00109721 0)
(0.147112 -0.00106465 0)
(0.147792 -0.00102474 0)
(0.148434 -0.00097631 0)
(0.149032 -0.000917917 0)
(0.149584 -0.000847797 0)
(0.150082 -0.000763763 0)
(0.150523 -0.000663077 0)
(0.150897 -0.000542278 0)
(0.151197 -0.000396933 0)
(0.151413 -0.000221296 0)
(0.151533 -7.821e-06 0)
(0.151543 0.000253527 0)
(0.151424 0.000576549 0)
(0.151155 0.000980345 0)
(0.15071 0.00149182 0)
(0.150057 0.00214955 0)
(0.149157 0.0030098 0)
(0.147968 0.00415568 0)
(0.146445 0.00571058 0)
(0.144555 0.00785575 0)
(0.142302 0.0108477 0)
(0.139796 0.0150192 0)
(0.137455 0.0206502 0)
(0.136513 0.0272029 0)
(0.100027 -7.31702e-05 0)
(0.100168 -0.000138594 0)
(0.100397 -0.000198298 0)
(0.100695 -0.000253364 0)
(0.101056 -0.000305118 0)
(0.101475 -0.000354316 0)
(0.101944 -0.000401453 0)
(0.102461 -0.000446917 0)
(0.103021 -0.000491006 0)
(0.103621 -0.000533949 0)
(0.104258 -0.000575929 0)
(0.104929 -0.000617093 0)
(0.105632 -0.000657559 0)
(0.106364 -0.000697423 0)
(0.107123 -0.000736762 0)
(0.107908 -0.000775637 0)
(0.108716 -0.000814094 0)
(0.109547 -0.00085217 0)
(0.110398 -0.000889889 0)
(0.111269 -0.000927268 0)
(0.112156 -0.000964315 0)
(0.113061 -0.00100103 0)
(0.11398 -0.00103742 0)
(0.114913 -0.00107345 0)
(0.115858 -0.00110912 0)
(0.116815 -0.00114441 0)
(0.117782 -0.00117928 0)
(0.118758 -0.00121371 0)
(0.119742 -0.00124765 0)
(0.120733 -0.00128107 0)
(0.12173 -0.00131391 0)
(0.122731 -0.00134612 0)
(0.123737 -0.00137765 0)
(0.124744 -0.00140842 0)
(0.125754 -0.00143837 0)
(0.126764 -0.00146743 0)
(0.127773 -0.00149549 0)
(0.128781 -0.00152248 0)
(0.129786 -0.00154828 0)
(0.130788 -0.00157278 0)
(0.131784 -0.00159586 0)
(0.132775 -0.00161738 0)
(0.133759 -0.00163718 0)
(0.134735 -0.0016551 0)
(0.135701 -0.00167094 0)
(0.136657 -0.0016845 0)
(0.137602 -0.00169552 0)
(0.138533 -0.00170376 0)
(0.13945 -0.00170889 0)
(0.140351 -0.00171058 0)
(0.141234 -0.00170843 0)
(0.142099 -0.00170199 0)
(0.142943 -0.00169074 0)
(0.143764 -0.00167407 0)
(0.144561 -0.00165129 0)
(0.145331 -0.00162157 0)
(0.146072 -0.00158395 0)
(0.146782 -0.00153729 0)
(0.147457 -0.0014802 0)
(0.148094 -0.00141106 0)
(0.14869 -0.00132787 0)
(0.149241 -0.00122822 0)
(0.149741 -0.00110911 0)
(0.150186 -0.000966845 0)
(0.15057 -0.00079678 0)
(0.150885 -0.000593035 0)
(0.151123 -0.000348093 0)
(0.151276 -5.22457e-05 0)
(0.151332 0.000307155 0)
(0.151279 0.000746924 0)
(0.151103 0.00128971 0)
(0.150791 0.0019662 0)
(0.150327 0.00281827 0)
(0.1497 0.00390334 0)
(0.148904 0.00529988 0)
(0.147954 0.00711325 0)
(0.146896 0.00947866 0)
(0.14584 0.0125515 0)
(0.145002 0.0164622 0)
(0.144759 0.0211637 0)
(0.145651 0.0260018 0)
(0.100025 -9.5601e-05 0)
(0.100162 -0.000183065 0)
(0.100387 -0.000262481 0)
(0.100681 -0.000335809 0)
(0.101038 -0.000404701 0)
(0.101453 -0.000470163 0)
(0.101918 -0.000532867 0)
(0.102431 -0.000593333 0)
(0.102987 -0.000651957 0)
(0.103583 -0.000709047 0)
(0.104215 -0.000764846 0)
(0.104881 -0.000819551 0)
(0.105579 -0.00087332 0)
(0.106306 -0.000926281 0)
(0.10706 -0.000978536 0)
(0.10784 -0.00103017 0)
(0.108643 -0.00108123 0)
(0.109468 -0.00113178 0)
(0.110314 -0.00118185 0)
(0.111178 -0.00123146 0)
(0.11206 -0.00128063 0)
(0.112958 -0.00132934 0)
(0.11387 -0.0013776 0)
(0.114797 -0.0014254 0)
(0.115735 -0.0014727 0)
(0.116685 -0.00151947 0)
(0.117645 -0.00156569 0)
(0.118613 -0.00161131 0)
(0.11959 -0.00165628 0)
(0.120573 -0.00170053 0)
(0.121561 -0.00174401 0)
(0.122554 -0.00178665 0)
(0.123551 -0.00182837 0)
(0.12455 -0.00186907 0)
(0.12555 -0.00190868 0)
(0.126551 -0.00194707 0)
(0.127551 -0.00198415 0)
(0.128549 -0.00201978 0)
(0.129545 -0.00205383 0)
(0.130536 -0.00208614 0)
(0.131523 -0.00211656 0)
(0.132503 -0.00214489 0)
(0.133477 -0.00217095 0)
(0.134442 -0.00219449 0)
(0.135397 -0.00221528 0)
(0.136343 -0.00223302 0)
(0.137276 -0.00224742 0)
(0.138196 -0.00225812 0)
(0.139102 -0.00226472 0)
(0.139991 -0.00226677 0)
(0.140864 -0.00226375 0)
(0.141718 -0.00225509 0)
(0.142551 -0.0022401 0)
(0.143362 -0.00221802 0)
(0.144149 -0.00218793 0)
(0.14491 -0.00214879 0)
(0.145642 -0.00209937 0)
(0.146344 -0.00203821 0)
(0.147013 -0.00196358 0)
(0.147646 -0.00187342 0)
(0.148239 -0.00176527 0)
(0.148789 -0.00163613 0)
(0.149293 -0.00148233 0)
(0.149746 -0.00129941 0)
(0.150143 -0.00108182 0)
(0.150479 -0.000822626 0)
(0.150748 -0.000513145 0)
(0.150944 -0.000142395 0)
(0.151061 0.000303501 0)
(0.151092 0.000842312 0)
(0.151032 0.00149711 0)
(0.150876 0.00229765 0)
(0.150627 0.00328223 0)
(0.150291 0.00449958 0)
(0.149891 0.00601033 0)
(0.149469 0.00788651 0)
(0.149104 0.0102056 0)
(0.148921 0.0130316 0)
(0.149109 0.0163696 0)
(0.149911 0.0200684 0)
(0.151541 0.0236544 0)
(0.100022 -0.000118682 0)
(0.100156 -0.000229585 0)
(0.100376 -0.000329973 0)
(0.100665 -0.000422794 0)
(0.101018 -0.000509988 0)
(0.101427 -0.000592814 0)
(0.101887 -0.000672127 0)
(0.102395 -0.00074859 0)
(0.102945 -0.000822704 0)
(0.103535 -0.000894862 0)
(0.104162 -0.000965374 0)
(0.104822 -0.00103449 0)
(0.105513 -0.0011024 0)
(0.106234 -0.00116929 0)
(0.106982 -0.00123526 0)
(0.107755 -0.00130044 0)
(0.108551 -0.00136489 0)
(0.109369 -0.00142868 0)
(0.110207 -0.00149184 0)
(0.111064 -0.00155441 0)
(0.111938 -0.00161641 0)
(0.112828 -0.00167782 0)
(0.113732 -0.00173865 0)
(0.11465 -0.00179887 0)
(0.11558 -0.00185846 0)
(0.11652 -0.00191737 0)
(0.117471 -0.00197557 0)
(0.11843 -0.00203298 0)
(0.119397 -0.00208956 0)
(0.12037 -0.00214523 0)
(0.121348 -0.0021999 0)
(0.12233 -0.0022535 0)
(0.123316 -0.00230591 0)
(0.124304 -0.00235703 0)
(0.125293 -0.00240675 0)
(0.126282 -0.00245492 0)
(0.127271 -0.00250141 0)
(0.128257 -0.00254606 0)
(0.12924 -0.0025887 0)
(0.130219 -0.00262914 0)
(0.131193 -0.00266717 0)
(0.132161 -0.00270256 0)
(0.133121 -0.00273507 0)
(0.134073 -0.0027644 0)
(0.135015 -0.00279025 0)
(0.135947 -0.00281227 0)
(0.136866 -0.00283008 0)
(0.137773 -0.00284324 0)
(0.138665 -0.00285125 0)
(0.139541 -0.00285357 0)
(0.140401 -0.00284957 0)
(0.141241 -0.00283852 0)
(0.142062 -0.00281961 0)
(0.142861 -0.00279189 0)
(0.143636 -0.00275429 0)
(0.144386 -0.00270552 0)
(0.145109 -0.00264412 0)
(0.145802 -0.00256837 0)
(0.146464 -0.00247623 0)
(0.147092 -0.0023653 0)
(0.147683 -0.0022327 0)
(0.148235 -0.00207502 0)
(0.148744 -0.00188811 0)
(0.149208 -0.00166699 0)
(0.149624 -0.00140558 0)
(0.149987 -0.00109643 0)
(0.150295 -0.000730418 0)
(0.150544 -0.000296312 0)
(0.150733 0.000219635 0)
(0.15086 0.000834101 0)
(0.150927 0.00156784 0)
(0.150939 0.00244617 0)
(0.150907 0.00349939 0)
(0.150852 0.0047628 0)
(0.150806 0.00627548 0)
(0.15082 0.00807678 0)
(0.150972 0.0101982 0)
(0.151364 0.0126474 0)
(0.152125 0.015379 0)
(0.15339 0.0182496 0)
(0.155229 0.0209663 0)
(0.100019 -0.000142422 0)
(0.10015 -0.00027809 0)
(0.100365 -0.00040072 0)
(0.100649 -0.000514285 0)
(0.100995 -0.000620987 0)
(0.101398 -0.000722318 0)
(0.101852 -0.000819329 0)
(0.102353 -0.000912828 0)
(0.102896 -0.00100343 0)
(0.103479 -0.00109162 0)
(0.104099 -0.00117777 0)
(0.104752 -0.00126219 0)
(0.105436 -0.00134513 0)
(0.106149 -0.00142679 0)
(0.106889 -0.00150732 0)
(0.107653 -0.00158685 0)
(0.108441 -0.00166548 0)
(0.10925 -0.00174328 0)
(0.110079 -0.0018203 0)
(0.110927 -0.00189657 0)
(0.111791 -0.00197212 0)
(0.112671 -0.00204694 0)
(0.113566 -0.00212103 0)
(0.114473 -0.00219436 0)
(0.115392 -0.00226689 0)
(0.116322 -0.00233858 0)
(0.117261 -0.00240937 0)
(0.118208 -0.00247918 0)
(0.119163 -0.00254796 0)
(0.120124 -0.00261559 0)
(0.12109 -0.002682 0)
(0.12206 -0.00274706 0)
(0.123032 -0.00281065 0)
(0.124007 -0.00287265 0)
(0.124982 -0.00293291 0)
(0.125958 -0.00299126 0)
(0.126932 -0.00304754 0)
(0.127903 -0.00310156 0)
(0.128872 -0.0031531 0)
(0.129836 -0.00320193 0)
(0.130795 -0.00324782 0)
(0.131747 -0.00329047 0)
(0.132692 -0.00332959 0)
(0.133628 -0.00336485 0)
(0.134555 -0.00339586 0)
(0.135471 -0.00342221 0)
(0.136374 -0.00344344 0)
(0.137265 -0.00345904 0)
(0.138141 -0.00346843 0)
(0.139002 -0.00347094 0)
(0.139846 -0.00346585 0)
(0.140671 -0.00345231 0)
(0.141477 -0.00342937 0)
(0.142262 -0.00339594 0)
(0.143025 -0.00335075 0)
(0.143763 -0.00329238 0)
(0.144475 -0.00321915 0)
(0.145159 -0.00312911 0)
(0.145814 -0.00302 0)
(0.146438 -0.00288917 0)
(0.147028 -0.00273348 0)
(0.147583 -0.00254926 0)
(0.148101 -0.00233213 0)
(0.14858 -0.00207691 0)
(0.149017 -0.00177739 0)
(0.149413 -0.00142621 0)
(0.149765 -0.00101454 0)
(0.150075 -0.000531891 0)
(0.150342 3.41704e-05 0)
(0.150571 0.000697792 0)
(0.150768 0.00147552 0)
(0.150944 0.00238633 0)
(0.151114 0.00345102 0)
(0.151304 0.00469115 0)
(0.151548 0.00612684 0)
(0.151893 0.00777288 0)
(0.152398 0.00963221 0)
(0.153136 0.0116858 0)
(0.154184 0.0138784 0)
(0.155606 0.0161023 0)
(0.157416 0.0181877 0)
(0.100016 -0.000166842 0)
(0.100144 -0.000328534 0)
(0.100353 -0.000474677 0)
(0.100631 -0.000610239 0)
(0.10097 -0.000737678 0)
(0.101366 -0.000858693 0)
(0.101812 -0.000974527 0)
(0.102306 -0.00108614 0)
(0.102841 -0.00119426 0)
(0.103416 -0.00129948 0)
(0.104027 -0.00140223 0)
(0.104671 -0.00150289 0)
(0.105347 -0.00160176 0)
(0.10605 -0.00169906 0)
(0.106781 -0.001795 0)
(0.107535 -0.00188971 0)
(0.108313 -0.00198333 0)
(0.109112 -0.00207592 0)
(0.10993 -0.00216757 0)
(0.110767 -0.0022583 0)
(0.11162 -0.00234813 0)
(0.112488 -0.00243708 0)
(0.113371 -0.00252512 0)
(0.114266 -0.00261222 0)
(0.115172 -0.00269835 0)
(0.116089 -0.00278344 0)
(0.117015 -0.00286743 0)
(0.117949 -0.00295024 0)
(0.118889 -0.00303176 0)
(0.119836 -0.00311191 0)
(0.120787 -0.00319055 0)
(0.121742 -0.00326757 0)
(0.122699 -0.00334281 0)
(0.123658 -0.00341611 0)
(0.124618 -0.00348732 0)
(0.125577 -0.00355622 0)
(0.126535 -0.00362263 0)
(0.12749 -0.00368631 0)
(0.128441 -0.00374703 0)
(0.129388 -0.0038045 0)
(0.130329 -0.00385845 0)
(0.131264 -0.00390853 0)
(0.132191 -0.00395441 0)
(0.133109 -0.00399568 0)
(0.134017 -0.00403192 0)
(0.134915 -0.00406264 0)
(0.135801 -0.00408731 0)
(0.136673 -0.00410534 0)
(0.137532 -0.00411607 0)
(0.138375 -0.00411874 0)
(0.139202 -0.00411253 0)
(0.140011 -0.00409648 0)
(0.1408 -0.00406953 0)
(0.14157 -0.00403046 0)
(0.142318 -0.00397789 0)
(0.143044 -0.00391023 0)
(0.143745 -0.00382567 0)
(0.14442 -0.00372213 0)
(0.145069 -0.00359719 0)
(0.145689 -0.00344808 0)
(0.14628 -0.00327157 0)
(0.14684 -0.00306392 0)
(0.147368 -0.00282078 0)
(0.147864 -0.00253709 0)
(0.148328 -0.00220699 0)
(0.148759 -0.00182367 0)
(0.149159 -0.0013793 0)
(0.149531 -0.000864899 0)
(0.149878 -0.000270297 0)
(0.150208 0.000415716 0)
(0.150527 0.00120449 0)
(0.150851 0.00210836 0)
(0.151195 0.00313929 0)
(0.151585 0.00430751 0)
(0.152049 0.00561943 0)
(0.152624 0.0070747 0)
(0.153352 0.00866209 0)
(0.154277 0.0103545 0)
(0.155441 0.0121036 0)
(0.156871 0.0138359 0)
(0.158559 0.0154553 0)
(0.100013 -0.000191976 0)
(0.100139 -0.000380887 0)
(0.100342 -0.000551804 0)
(0.100612 -0.000710611 0)
(0.100944 -0.000860026 0)
(0.101331 -0.00100192 0)
(0.10177 -0.00113773 0)
(0.102254 -0.00126856 0)
(0.102781 -0.00139527 0)
(0.103346 -0.00151853 0)
(0.103947 -0.00163888 0)
(0.104581 -0.00175673 0)
(0.105246 -0.00187245 0)
(0.105939 -0.0019863 0)
(0.106658 -0.00209851 0)
(0.107402 -0.00220925 0)
(0.108168 -0.00231867 0)
(0.108955 -0.00242687 0)
(0.109761 -0.00253391 0)
(0.110584 -0.00263985 0)
(0.111424 -0.0027447 0)
(0.112279 -0.00284847 0)
(0.113148 -0.00295115 0)
(0.114028 -0.00305269 0)
(0.11492 -0.00315305 0)
(0.115822 -0.00325217 0)
(0.116733 -0.00334995 0)
(0.117651 -0.00344631 0)
(0.118575 -0.00354114 0)
(0.119505 -0.00363431 0)
(0.12044 -0.00372568 0)
(0.121378 -0.00381511 0)
(0.122318 -0.00390242 0)
(0.123259 -0.00398743 0)
(0.1242 -0.00406994 0)
(0.125141 -0.00414974 0)
(0.12608 -0.00422657 0)
(0.127015 -0.0043002 0)
(0.127948 -0.00437032 0)
(0.128875 -0.00443664 0)
(0.129796 -0.00449881 0)
(0.130711 -0.00455646 0)
(0.131618 -0.0046092 0)
(0.132516 -0.00465657 0)
(0.133404 -0.00469809 0)
(0.134282 -0.00473322 0)
(0.135147 -0.00476135 0)
(0.136 -0.00478182 0)
(0.136839 -0.0047939 0)
(0.137663 -0.00479676 0)
(0.138471 -0.00478949 0)
(0.139262 -0.00477105 0)
(0.140034 -0.00474028 0)
(0.140788 -0.00469588 0)
(0.141521 -0.00463638 0)
(0.142233 -0.00456011 0)
(0.142923 -0.00446519 0)
(0.143589 -0.00434946 0)
(0.144232 -0.00421049 0)
(0.144849 -0.0040455 0)
(0.145442 -0.00385135 0)
(0.146008 -0.00362443 0)
(0.146549 -0.00336068 0)
(0.147064 -0.00305548 0)
(0.147555 -0.00270365 0)
(0.148024 -0.00229939 0)
(0.148472 -0.00183628 0)
(0.148905 -0.00130734 0)
(0.149328 -0.000705089 0)
(0.149748 -2.16485e-05 0)
(0.150176 0.000750142 0)
(0.150625 0.0016163 0)
(0.151109 0.00258186 0)
(0.151649 0.00364909 0)
(0.152268 0.00481608 0)
(0.152991 0.00607489 0)
(0.153845 0.00740958 0)
(0.154855 0.00879421 0)
(0.15604 0.0101917 0)
(0.157409 0.0115542 0)
(0.15895 0.0128276 0)
(0.10001 -0.000217857 0)
(0.100133 -0.000435128 0)
(0.10033 -0.000632066 0)
(0.100593 -0.000815352 0)
(0.100917 -0.000987979 0)
(0.101295 -0.00115197 0)
(0.101724 -0.00130892 0)
(0.102199 -0.0014601 0)
(0.102715 -0.00160648 0)
(0.10327 -0.00174883 0)
(0.10386 -0.00188777 0)
(0.104483 -0.00202379 0)
(0.105136 -0.00215729 0)
(0.105816 -0.00228859 0)
(0.106523 -0.00241796 0)
(0.107253 -0.00254559 0)
(0.108006 -0.00267164 0)
(0.108779 -0.00279623 0)
(0.109571 -0.00291945 0)
(0.11038 -0.00304134 0)
(0.111205 -0.00316193 0)
(0.112044 -0.00328123 0)
(0.112897 -0.00339922 0)
(0.113762 -0.00351585 0)
(0.114637 -0.00363107 0)
(0.115522 -0.00374481 0)
(0.116415 -0.00385695 0)
(0.117315 -0.00396741 0)
(0.118222 -0.00407605 0)
(0.119133 -0.00418272 0)
(0.120049 -0.00428728 0)
(0.120967 -0.00438954 0)
(0.121888 -0.00448931 0)
(0.122809 -0.00458639 0)
(0.12373 -0.00468054 0)
(0.12465 -0.00477152 0)
(0.125568 -0.00485905 0)
(0.126482 -0.00494285 0)
(0.127393 -0.00502258 0)
(0.128298 -0.0050979 0)
(0.129198 -0.00516844 0)
(0.130091 -0.00523378 0)
(0.130975 -0.00529346 0)
(0.131851 -0.005347 0)
(0.132717 -0.00539386 0)
(0.133573 -0.00543342 0)
(0.134417 -0.00546506 0)
(0.135248 -0.00548803 0)
(0.136065 -0.00550155 0)
(0.136868 -0.00550473 0)
(0.137656 -0.00549659 0)
(0.138428 -0.00547603 0)
(0.139182 -0.00544186 0)
(0.139919 -0.00539271 0)
(0.140636 -0.00532708 0)
(0.141335 -0.00524327 0)
(0.142013 -0.00513941 0)
(0.142671 -0.00501338 0)
(0.143308 -0.00486282 0)
(0.143923 -0.00468511 0)
(0.144518 -0.00447731 0)
(0.145091 -0.00423619 0)
(0.145645 -0.00395815 0)
(0.14618 -0.00363927 0)
(0.146699 -0.00327529 0)
(0.147203 -0.00286169 0)
(0.147697 -0.00239368 0)
(0.148186 -0.00186641 0)
(0.148675 -0.00127508 0)
(0.149173 -0.000615119 0)
(0.149689 0.000117611 0)
(0.150235 0.000924746 0)
(0.150824 0.00180599 0)
(0.151469 0.00275892 0)
(0.152187 0.00377753 0)
(0.152995 0.00485129 0)
(0.153908 0.00596451 0)
(0.154939 0.00709588 0)
(0.156095 0.00821878 0)
(0.157376 0.00930279 0)
(0.158772 0.010317 0)
(0.100006 -0.000244517 0)
(0.100127 -0.000491239 0)
(0.100318 -0.000715426 0)
(0.100574 -0.000924408 0)
(0.100888 -0.00112147 0)
(0.101258 -0.00130876 0)
(0.101676 -0.00148802 0)
(0.10214 -0.00166068 0)
(0.102645 -0.00182782 0)
(0.103188 -0.00199032 0)
(0.103765 -0.00214887 0)
(0.104375 -0.00230404 0)
(0.105015 -0.00245627 0)
(0.105682 -0.00260595 0)
(0.106375 -0.00275335 0)
(0.107091 -0.00289872 0)
(0.107828 -0.00304222 0)
(0.108586 -0.00318401 0)
(0.109361 -0.00332416 0)
(0.110154 -0.00346275 0)
(0.110962 -0.00359979 0)
(0.111785 -0.00373531 0)
(0.11262 -0.00386926 0)
(0.113466 -0.00400161 0)
(0.114323 -0.00413229 0)
(0.115189 -0.00426121 0)
(0.116063 -0.00438826 0)
(0.116943 -0.00451333 0)
(0.117829 -0.00463625 0)
(0.11872 -0.00475688 0)
(0.119615 -0.00487504 0)
(0.120512 -0.00499052 0)
(0.12141 -0.00510311 0)
(0.122309 -0.00521257 0)
(0.123208 -0.00531865 0)
(0.124105 -0.00542106 0)
(0.124999 -0.00551951 0)
(0.125891 -0.00561366 0)
(0.126778 -0.00570317 0)
(0.127659 -0.00578764 0)
(0.128535 -0.00586665 0)
(0.129404 -0.00593976 0)
(0.130264 -0.00600647 0)
(0.131116 -0.00606624 0)
(0.131958 -0.00611849 0)
(0.13279 -0.00616258 0)
(0.13361 -0.00619781 0)
(0.134418 -0.00622341 0)
(0.135213 -0.00623854 0)
(0.135994 -0.00624228 0)
(0.13676 -0.00623362 0)
(0.137512 -0.00621145 0)
(0.138247 -0.00617452 0)
(0.138966 -0.0061215 0)
(0.139668 -0.00605088 0)
(0.140352 -0.00596103 0)
(0.141019 -0.00585014 0)
(0.141668 -0.00571623 0)
(0.142299 -0.00555713 0)
(0.142913 -0.00537047 0)
(0.14351 -0.0051537 0)
(0.144091 -0.00490405 0)
(0.144657 -0.00461858 0)
(0.145211 -0.0042942 0)
(0.145754 -0.00392771 0)
(0.146291 -0.0035159 0)
(0.146824 -0.00305564 0)
(0.14736 -0.00254404 0)
(0.147904 -0.00197863 0)
(0.148463 -0.00135758 0)
(0.149046 -0.00067986 0)
(0.149662 5.4747e-05 0)
(0.15032 0.000843305 0)
(0.151032 0.00168 0)
(0.151806 0.00255752 0)
(0.152653 0.00346565 0)
(0.15358 0.00439104 0)
(0.154594 0.00531749 0)
(0.155696 0.00622661 0)
(0.156882 0.00709915 0)
(0.158144 0.00791722 0)
(0.100003 -0.00027198 0)
(0.100121 -0.0005492 0)
(0.100307 -0.000801835 0)
(0.100554 -0.00103771 0)
(0.100859 -0.0012604 0)
(0.101219 -0.00147218 0)
(0.101626 -0.00167493 0)
(0.102078 -0.00187019 0)
(0.102571 -0.00205918 0)
(0.1031 -0.00224288 0)
(0.103664 -0.00242206 0)
(0.10426 -0.00259736 0)
(0.104885 -0.00276928 0)
(0.105537 -0.00293823 0)
(0.106214 -0.00310455 0)
(0.106914 -0.00326849 0)
(0.107634 -0.00343027 0)
(0.108375 -0.00359003 0)
(0.109133 -0.00374787 0)
(0.109908 -0.00390388 0)
(0.110697 -0.00405807 0)
(0.1115 -0.00421046 0)
(0.112316 -0.00436101 0)
(0.113142 -0.00450967 0)
(0.113978 -0.00465638 0)
(0.114823 -0.00480102 0)
(0.115676 -0.00494348 0)
(0.116534 -0.00508362 0)
(0.117398 -0.00522127 0)
(0.118266 -0.00535626 0)
(0.119138 -0.00548839 0)
(0.120011 -0.00561743 0)
(0.120885 -0.00574314 0)
(0.12176 -0.00586526 0)
(0.122634 -0.0059835 0)
(0.123506 -0.00609756 0)
(0.124376 -0.00620711 0)
(0.125242 -0.00631177 0)
(0.126103 -0.00641118 0)
(0.126959 -0.0065049 0)
(0.127809 -0.00659248 0)
(0.128651 -0.00667344 0)
(0.129486 -0.00674725 0)
(0.130312 -0.00681333 0)
(0.131129 -0.00687107 0)
(0.131935 -0.00691979 0)
(0.13273 -0.00695877 0)
(0.133513 -0.00698721 0)
(0.134284 -0.00700425 0)
(0.135042 -0.00700896 0)
(0.135786 -0.00700033 0)
(0.136516 -0.00697723 0)
(0.137232 -0.00693848 0)
(0.137932 -0.00688276 0)
(0.138618 -0.00680866 0)
(0.139288 -0.00671466 0)
(0.139943 -0.00659909 0)
(0.140583 -0.00646019 0)
(0.141208 -0.00629606 0)
(0.14182 -0.0061047 0)
(0.142418 -0.00588401 0)
(0.143005 -0.0056318 0)
(0.143582 -0.00534585 0)
(0.144152 -0.00502396 0)
(0.144716 -0.00466396 0)
(0.145279 -0.00426391 0)
(0.145844 -0.00382211 0)
(0.146417 -0.00333729 0)
(0.147001 -0.00280879 0)
(0.147604 -0.00223671 0)
(0.148232 -0.00162209 0)
(0.148891 -0.000966961 0)
(0.14959 -0.000274207 0)
(0.150335 0.000451401 0)
(0.151132 0.00120115 0)
(0.151985 0.00196568 0)
(0.152898 0.00273456 0)
(0.153874 0.00349613 0)
(0.15491 0.00423804 0)
(0.156003 0.00494812 0)
(0.157145 0.00561584 0)
(0.0999991 -0.000300259 0)
(0.100115 -0.000608982 0)
(0.100295 -0.000891227 0)
(0.100534 -0.00115516 0)
(0.10083 -0.00140466 0)
(0.101178 -0.00164209 0)
(0.101574 -0.00186946 0)
(0.102013 -0.00208844 0)
(0.102492 -0.00230037 0)
(0.103008 -0.00250631 0)
(0.103557 -0.00270713 0)
(0.104137 -0.00290352 0)
(0.104746 -0.00309605 0)
(0.105382 -0.00328518 0)
(0.106041 -0.00347127 0)
(0.106723 -0.00365463 0)
(0.107426 -0.00383546 0)
(0.108147 -0.00401396 0)
(0.108886 -0.00419022 0)
(0.10964 -0.00436433 0)
(0.110409 -0.00453633 0)
(0.111192 -0.00470621 0)
(0.111986 -0.00487396 0)
(0.11279 -0.0050395 0)
(0.113604 -0.00520275 0)
(0.114425 -0.00536361 0)
(0.115254 -0.00552194 0)
(0.116089 -0.00567758 0)
(0.116929 -0.00583035 0)
(0.117772 -0.00598006 0)
(0.118618 -0.00612647 0)
(0.119466 -0.00626936 0)
(0.120314 -0.00640844 0)
(0.121163 -0.00654345 0)
(0.12201 -0.00667405 0)
(0.122855 -0.00679992 0)
(0.123697 -0.0069207 0)
(0.124536 -0.007036 0)
(0.12537 -0.0071454 0)
(0.126198 -0.00724845 0)
(0.12702 -0.00734468 0)
(0.127835 -0.00743356 0)
(0.128642 -0.00751455 0)
(0.12944 -0.00758704 0)
(0.130229 -0.0076504 0)
(0.131009 -0.00770393 0)
(0.131777 -0.0077469 0)
(0.132535 -0.00777851 0)
(0.133281 -0.00779789 0)
(0.134014 -0.00780414 0)
(0.134735 -0.00779626 0)
(0.135443 -0.00777319 0)
(0.136138 -0.00773379 0)
(0.13682 -0.00767686 0)
(0.137489 -0.00760111 0)
(0.138144 -0.00750518 0)
(0.138786 -0.00738763 0)
(0.139417 -0.00724696 0)
(0.140035 -0.00708162 0)
(0.140643 -0.00689003 0)
(0.141242 -0.00667058 0)
(0.141832 -0.0064217 0)
(0.142417 -0.00614189 0)
(0.142998 -0.00582977 0)
(0.143578 -0.00548413 0)
(0.14416 -0.00510407 0)
(0.144748 -0.00468906 0)
(0.145345 -0.00423903 0)
(0.145957 -0.00375455 0)
(0.146587 -0.00323689 0)
(0.14724 -0.00268819 0)
(0.147921 -0.00211146 0)
(0.148635 -0.00151068 0)
(0.149386 -0.000890545 0)
(0.150179 -0.000255935 0)
(0.151016 0.000386085 0)
(0.151897 0.00102662 0)
(0.152822 0.00165618 0)
(0.153788 0.00226659 0)
(0.154792 0.00285015 0)
(0.155828 0.00340074 0)
(0.0999951 -0.000329353 0)
(0.100109 -0.00067054 0)
(0.100283 -0.000983506 0)
(0.100513 -0.00127662 0)
(0.100799 -0.00155406 0)
(0.101136 -0.00181828 0)
(0.101519 -0.00207138 0)
(0.101945 -0.00231516 0)
(0.10241 -0.00255108 0)
(0.10291 -0.00278028 0)
(0.103443 -0.00300371 0)
(0.104007 -0.00322214 0)
(0.104598 -0.00343618 0)
(0.105216 -0.00364636 0)
(0.105856 -0.00385306 0)
(0.106519 -0.00405662 0)
(0.107201 -0.00425728 0)
(0.107902 -0.00445523 0)
(0.10862 -0.0046506 0)
(0.109353 -0.00484348 0)
(0.110099 -0.0050339 0)
(0.110859 -0.00522187 0)
(0.111629 -0.00540734 0)
(0.11241 -0.00559027 0)
(0.113199 -0.00577055 0)
(0.113996 -0.00594807 0)
(0.114799 -0.00612266 0)
(0.115608 -0.00629417 0)
(0.116421 -0.0064624 0)
(0.117237 -0.00662712 0)
(0.118056 -0.00678809 0)
(0.118876 -0.00694505 0)
(0.119696 -0.00709771 0)
(0.120516 -0.00724577 0)
(0.121335 -0.00738887 0)
(0.122151 -0.00752667 0)
(0.122964 -0.00765878 0)
(0.123773 -0.00778479 0)
(0.124578 -0.00790426 0)
(0.125376 -0.00801671 0)
(0.126169 -0.00812165 0)
(0.126954 -0.00821854 0)
(0.127732 -0.0083068 0)
(0.128501 -0.00838584 0)
(0.129262 -0.008455 0)
(0.130013 -0.0085136 0)
(0.130754 -0.00856089 0)
(0.131484 -0.0085961 0)
(0.132204 -0.00861841 0)
(0.132912 -0.00862693 0)
(0.133609 -0.00862073 0)
(0.134294 -0.00859884 0)
(0.134968 -0.00856023 0)
(0.13563 -0.00850382 0)
(0.13628 -0.00842851 0)
(0.13692 -0.00833313 0)
(0.137549 -0.00821652 0)
(0.138168 -0.00807748 0)
(0.138778 -0.00791484 0)
(0.139381 -0.00772744 0)
(0.139977 -0.00751419 0)
(0.140568 -0.00727411 0)
(0.141156 -0.00700633 0)
(0.141743 -0.00671019 0)
(0.142332 -0.00638528 0)
(0.142925 -0.00603149 0)
(0.143526 -0.00564912 0)
(0.144137 -0.00523892 0)
(0.144762 -0.00480216 0)
(0.145403 -0.00434073 0)
(0.146065 -0.00385713 0)
(0.146751 -0.00335457 0)
(0.147462 -0.00283688 0)
(0.148202 -0.00230856 0)
(0.148972 -0.00177453 0)
(0.149774 -0.00123996 0)
(0.150609 -0.000709757 0)
(0.151474 -0.000188867 0)
(0.152369 0.000316697 0)
(0.153289 0.000801556 0)
(0.15423 0.00126101 0)
(0.0999907 -0.000359243 0)
(0.100102 -0.000733804 0)
(0.100271 -0.00107854 0)
(0.100493 -0.00140192 0)
(0.100768 -0.00170837 0)
(0.101093 -0.00200045 0)
(0.101463 -0.00228036 0)
(0.101874 -0.00254998 0)
(0.102323 -0.00281089 0)
(0.102807 -0.00306433 0)
(0.103324 -0.00331131 0)
(0.103869 -0.00355268 0)
(0.104442 -0.00378911 0)
(0.105039 -0.00402116 0)
(0.10566 -0.00424926 0)
(0.106301 -0.00447377 0)
(0.106962 -0.00469497 0)
(0.10764 -0.00491305 0)
(0.108335 -0.00512817 0)
(0.109044 -0.00534041 0)
(0.109767 -0.00554981 0)
(0.110501 -0.00575638 0)
(0.111246 -0.00596009 0)
(0.112001 -0.00616085 0)
(0.112763 -0.00635857 0)
(0.113533 -0.00655312 0)
(0.114309 -0.00674432 0)
(0.11509 -0.006932 0)
(0.115874 -0.00711594 0)
(0.116662 -0.00729591 0)
(0.117451 -0.00747164 0)
(0.118241 -0.00764285 0)
(0.119032 -0.00780922 0)
(0.119821 -0.00797044 0)