/*--------------------------------*- C++ -*----------------------------------*\
| =========                 |                                                 |
| \\      /  F ield         | OpenFOAM: The Open Source CFD Toolbox           |
|  \\    /   O peration     | Version:  2106                                  |
|   \\  /    A nd           | Website:  www.openfoam.com                      |
|    \\/     M anipulation  |                                                 |
\*---------------------------------------------------------------------------*/
FoamFile
{
    version     2.0;
    format      ascii;
    arch        "LSB;label=32;scalar=64";
    class       surfaceScalarField;
    location    "7.2";
    object      phi;
}
// * * * * * * * * * * * * * * * * * * * * * * * * * * * * * * * * * * * * * //

dimensions      [1 0 -1 0 0 0 0];

oriented        oriented;

internalField   nonuniform List<scalar> 
23692
(
9.31836e-05
-1.04183e-07
9.33722e-05
-1.88527e-07
9.36358e-05
-2.63642e-07
9.39656e-05
-3.29791e-07
9.43547e-05
-3.89043e-07
9.47974e-05
-4.42658e-07
9.5289e-05
-4.91472e-07
9.58252e-05
-5.36156e-07
9.64025e-05
-5.77227e-07
9.70176e-05
-6.151e-07
9.76678e-05
-6.50107e-07
9.83504e-05
-6.82527e-07
9.90631e-05
-7.12596e-07
9.98037e-05
-7.40508e-07
0.00010057
-7.66425e-07
0.000101361
-7.90493e-07
0.000102174
-8.1283e-07
0.000103007
-8.33543e-07
0.00010386
-8.52717e-07
0.000104731
-8.70436e-07
0.000105618
-8.86763e-07
0.00010652
-9.01757e-07
0.000107435
-9.15472e-07
0.000108363
-9.2795e-07
0.000109303
-9.39232e-07
0.000110252
-9.4935e-07
0.000111211
-9.58335e-07
0.000112177
-9.66213e-07
0.00011315
-9.73005e-07
0.000114129
-9.78732e-07
0.000115112
-9.83407e-07
0.0001161
-9.87047e-07
0.000117089
-9.89657e-07
0.000118081
-9.91252e-07
0.000119073
-9.91831e-07
0.000120064
-9.91399e-07
0.000121054
-9.89954e-07
0.000122042
-9.87494e-07
0.000123026
-9.84012e-07
0.000124006
-9.795e-07
0.00012498
-9.73942e-07
0.000125947
-9.67319e-07
0.000126907
-9.59613e-07
0.000127858
-9.50792e-07
0.000128799
-9.40823e-07
0.000129728
-9.2967e-07
0.000130646
-9.17279e-07
0.000131549
-9.03597e-07
0.000132438
-8.88554e-07
0.00013331
-8.72073e-07
0.000134164
-8.54058e-07
0.000134999
-8.34398e-07
0.000135812
-8.12963e-07
0.000136601
-7.89597e-07
0.000137365
-7.64114e-07
0.000138102
-7.36297e-07
0.000138808
-7.05881e-07
0.00013948
-6.7255e-07
0.000140116
-6.35921e-07
0.000140712
-5.95526e-07
0.000141263
-5.50794e-07
0.000141764
-5.01017e-07
0.000142209
-4.45311e-07
0.000142592
-3.82562e-07
0.000142903
-3.11347e-07
0.000143133
-2.29834e-07
0.000143268
-1.35621e-07
0.000143294
-2.55319e-08
0.000143189
1.04797e-07
0.000142928
2.61429e-07
0.000142475
4.53008e-07
0.000141783
6.92098e-07
0.000140785
9.97497e-07
0.000139387
1.39815e-06
0.000137447
1.93999e-06
0.000134749
2.69801e-06
0.000130951
3.79766e-06
0.000125496
5.45496e-06
0.000117427
8.06968e-06
0.00010496
1.24664e-05
2.1025e-05
8.39352e-05
9.97077e-05
-2.12891e-07
9.99083e-05
-3.89115e-07
0.00010019
-5.44844e-07
0.000100541
-6.81736e-07
0.000100957
-8.04402e-07
0.00010143
-9.15384e-07
0.000101955
-1.01642e-06
0.000102527
-1.1089e-06
0.000103144
-1.19389e-06
0.000103801
-1.27226e-06
0.000104496
-1.3447e-06
0.000105225
-1.41178e-06
0.000105987
-1.47399e-06
0.000106778
-1.53172e-06
0.000107597
-1.58534e-06
0.000108442
-1.63512e-06
0.000109311
-1.68132e-06
0.000110201
-1.72416e-06
0.000111113
-1.76381e-06
0.000112043
-1.80044e-06
0.00011299
-1.8342e-06
0.000113954
-1.86519e-06
0.000114932
-1.89353e-06
0.000115924
-1.91932e-06
0.000116927
-1.94262e-06
0.000117941
-1.96352e-06
0.000118965
-1.98207e-06
0.000119998
-1.99833e-06
0.000121037
-2.01234e-06
0.000122083
-2.02414e-06
0.000123133
-2.03377e-06
0.000124187
-2.04125e-06
0.000125244
-2.0466e-06
0.000126303
-2.04985e-06
0.000127362
-2.051e-06
0.000128421
-2.05005e-06
0.000129478
-2.04701e-06
0.000130533
-2.04187e-06
0.000131584
-2.03461e-06
0.000132629
-2.02522e-06
0.000133669
-2.01366e-06
0.000134702
-1.99991e-06
0.000135726
-1.98391e-06
0.000136741
-1.96561e-06
0.000137745
-1.94494e-06
0.000138738
-1.92182e-06
0.000139717
-1.89614e-06
0.000140681
-1.8678e-06
0.000141629
-1.83665e-06
0.00014256
-1.80254e-06
0.000143471
-1.76526e-06
0.000144361
-1.7246e-06
0.000145229
-1.68028e-06
0.000146071
-1.63199e-06
0.000146886
-1.57935e-06
0.000147672
-1.52193e-06
0.000148425
-1.45917e-06
0.000149143
-1.39045e-06
0.000149822
-1.31498e-06
0.000150459
-1.23184e-06
0.000151048
-1.13986e-06
0.000151584
-1.03762e-06
0.000152062
-9.23374e-07
0.000152475
-7.94894e-07
0.000152813
-6.49371e-07
0.000153066
-4.83197e-07
0.000153222
-2.91688e-07
0.000153265
-6.86725e-08
0.000153176
1.94123e-07
0.000152929
5.0809e-07
0.000152493
8.8915e-07
0.000151825
1.35993e-06
0.00015087
1.95327e-06
0.00014955
2.71785e-06
0.000147763
3.72718e-06
0.000145367
5.09371e-06
0.000142175
6.98956e-06
0.000137956
9.6742e-06
0.000132493
1.35322e-05
0.000125919
1.90403e-05
2.60362e-05
0.000120908
0.000106688
-3.25467e-07
0.0001069
-6.01499e-07
0.000107199
-8.43383e-07
0.000107573
-1.05614e-06
0.000108015
-1.24671e-06
0.000108519
-1.41908e-06
0.000109079
-1.57598e-06
0.00010969
-1.71957e-06
0.000110347
-1.85152e-06
0.000111048
-1.97316e-06
0.000111789
-2.08558e-06
0.000112567
-2.18968e-06
0.00011338
-2.28621e-06
0.000114224
-2.3758e-06
0.000115097
-2.45897e-06
0.000115999
-2.53618e-06
0.000116925
-2.60783e-06
0.000117876
-2.67425e-06
0.000118848
-2.73573e-06
0.00011984
-2.79251e-06
0.000120851
-2.84481e-06
0.000121878
-2.89283e-06
0.000122922
-2.93673e-06
0.000123979
-2.97665e-06
0.000125049
-3.01272e-06
0.000126131
-3.04505e-06
0.000127223
-3.07373e-06
0.000128324
-3.09885e-06
0.000129432
-3.12047e-06
0.000130546
-3.13867e-06
0.000131666
-3.15349e-06
0.00013279
-3.16497e-06
0.000133917
-3.17315e-06
0.000135045
-3.17805e-06
0.000136174
-3.17969e-06
0.000137302
-3.17808e-06
0.000138429
-3.17322e-06
0.000139552
-3.16509e-06
0.000140671
-3.15369e-06
0.000141785
-3.13897e-06
0.000142892
-3.12089e-06
0.000143992
-3.09941e-06
0.000145083
-3.07444e-06
0.000146163
-3.04591e-06
0.000147232
-3.01371e-06
0.000148288
-2.97771e-06
0.000149329
-2.93776e-06
0.000150355
-2.89369e-06
0.000151364
-2.84528e-06
0.000152354
-2.79229e-06
0.000153323
-2.73442e-06
0.00015427
-2.67134e-06
0.000155192
-2.60263e-06
0.000156088
-2.52782e-06
0.000156955
-2.44635e-06
0.000157791
-2.35753e-06
0.000158592
-2.26056e-06
0.000159357
-2.1545e-06
0.00016008
-2.03817e-06
0.000160758
-1.91018e-06
0.000161387
-1.76882e-06
0.000161962
-1.61202e-06
0.000162475
-1.43717e-06
0.000162922
-1.24105e-06
0.000163292
-1.01962e-06
0.000163576
-7.67702e-07
0.000163763
-4.78683e-07
0.000163839
-1.43959e-07
0.000163785
2.47739e-07
0.000163582
7.11534e-07
0.000163203
1.26802e-06
0.000162617
1.94547e-06
0.000161787
2.78315e-06
0.000160669
3.83605e-06
0.000159215
5.18156e-06
0.000157381
6.92765e-06
0.00015515
9.22046e-06
0.000152581
1.22435e-05
0.000149928
1.61852e-05
0.000147895
2.10727e-05
2.61798e-05
0.000147751
0.000114156
-4.41615e-07
0.00011438
-8.25111e-07
0.000114695
-1.15907e-06
0.000115092
-1.45314e-06
0.000115562
-1.71642e-06
0.000116098
-1.95448e-06
0.000116693
-2.17112e-06
0.000117343
-2.36934e-06
0.000118043
-2.55146e-06
0.000118789
-2.71932e-06
0.000119578
-2.87444e-06
0.000120406
-3.01805e-06
0.000121271
-3.15119e-06
0.00012217
-3.27472e-06
0.000123101
-3.3894e-06
0.000124061
-3.49584e-06
0.000125048
-3.59458e-06
0.00012606
-3.6861e-06
0.000127095
-3.77078e-06
0.000128151
-3.84897e-06
0.000129228
-3.92098e-06
0.000130322
-3.98706e-06
0.000131433
-4.04745e-06
0.000132559
-4.10234e-06
0.000133698
-4.1519e-06
0.00013485
-4.1963e-06
0.000136012
-4.23565e-06
0.000137183
-4.27008e-06
0.000138362
-4.29968e-06
0.000139548
-4.32455e-06
0.00014074
-4.34474e-06
0.000141935
-4.36033e-06
0.000143134
-4.37135e-06
0.000144334
-4.37785e-06
0.000145534
-4.37985e-06
0.000146733
-4.37736e-06
0.000147931
-4.37038e-06
0.000149125
-4.35889e-06
0.000150314
-4.34288e-06
0.000151497
-4.3223e-06
0.000152674
-4.2971e-06
0.000153842
-4.26719e-06
0.000155
-4.23249e-06
0.000156147
-4.19288e-06
0.000157281
-4.14823e-06
0.000158402
-4.09835e-06
0.000159508
-4.04305e-06
0.000160596
-3.98209e-06
0.000161666
-3.9152e-06
0.000162716
-3.84203e-06
0.000163744
-3.76219e-06
0.000164748
-3.67524e-06
0.000165726
-3.58063e-06
0.000166676
-3.47772e-06
0.000167595
-3.36576e-06
0.000168482
-3.24387e-06
0.000169332
-3.11099e-06
0.000170144
-2.96586e-06
0.000170912
-2.80697e-06
0.000171635
-2.63252e-06
0.000172306
-2.44029e-06
0.000172922
-2.22763e-06
0.000173476
-1.99125e-06
0.000173962
-1.7271e-06
0.000174373
-1.43016e-06
0.000174699
-1.09411e-06
0.000174931
-7.10981e-07
0.000175058
-2.70622e-07
0.000175066
2.39899e-07
0.00017494
8.37293e-07
0.000174665
1.54354e-06
0.000174223
2.3875e-06
0.000173599
3.40701e-06
0.000172783
4.65148e-06
0.00017178
6.18442e-06
0.000170623
8.0847e-06
0.000169401
1.04429e-05
0.0001683
1.33445e-05
0.000167664
1.68212e-05
0.000168011
2.0726e-05
2.4468e-05
0.000169722
0.000122147
-5.61204e-07
0.000122381
-1.0595e-06
0.000122714
-1.49163e-06
0.000123133
-1.8727e-06
0.000123631
-2.21381e-06
0.000124199
-2.52212e-06
0.00012483
-2.80262e-06
0.00012552
-3.05921e-06
0.000126264
-3.2949e-06
0.000127057
-3.5121e-06
0.000127895
-3.71276e-06
0.000128775
-3.89849e-06
0.000129695
-4.07063e-06
0.000130651
-4.23033e-06
0.00013164
-4.37853e-06
0.00013266
-4.51606e-06
0.00013371
-4.6436e-06
0.000134785
-4.76177e-06
0.000135886
-4.87108e-06
0.000137009
-4.97198e-06
0.000138153
-5.06485e-06
0.000139316
-5.15005e-06
0.000140497
-5.22785e-06
0.000141693
-5.29854e-06
0.000142904
-5.36231e-06
0.000144127
-5.41939e-06
0.000145361
-5.46993e-06
0.000146606
-5.51409e-06
0.000147858
-5.55199e-06
0.000149117
-5.58375e-06
0.000150382
-5.60946e-06
0.000151651
-5.62921e-06
0.000152923
-5.64304e-06
0.000154197
-5.65101e-06
0.00015547
-5.65315e-06
0.000156742
-5.64948e-06
0.000158012
-5.64e-06
0.000159278
-5.62469e-06
0.000160539
-5.60354e-06
0.000161793
-5.57647e-06
0.000163039
-5.54344e-06
0.000164277
-5.50433e-06
0.000165503
-5.45905e-06
0.000166718
-5.40743e-06
0.000167919
-5.34931e-06
0.000169106
-5.28448e-06
0.000170275
-5.21269e-06
0.000171427
-5.13364e-06
0.000172559
-5.04697e-06
0.000173669
-4.95229e-06
0.000174756
-4.8491e-06
0.000175818
-4.73684e-06
0.000176852
-4.61485e-06
0.000177857
-4.48234e-06
0.000178829
-4.33841e-06
0.000179768
-4.18196e-06
0.000180668
-4.01173e-06
0.000181529
-3.8262e-06
0.000182345
-3.62356e-06
0.000183115
-3.40167e-06
0.000183832
-3.15794e-06
0.000184494
-2.88926e-06
0.000185095
-2.59187e-06
0.000185629
-2.26116e-06
0.00018609
-1.89151e-06
0.000186472
-1.47601e-06
0.000186767
-1.00611e-06
0.000186968
-4.71194e-07
0.000187066
1.41818e-07
0.000187054
8.49063e-07
0.000186927
1.67069e-06
0.000186683
2.63186e-06
0.000186326
3.76331e-06
0.000185876
5.10179e-06
0.000185371
6.68937e-06
0.000184885
8.57055e-06
0.000184544
1.07842e-05
0.000184542
1.33458e-05
0.000185152
1.62118e-05
0.000186663
1.92148e-05
2.197e-05
0.000189161
0.000130697
-6.8422e-07
0.000130942
-1.3043e-06
0.000131291
-1.84081e-06
0.000131733
-2.31472e-06
0.000132258
-2.73898e-06
0.000132859
-3.12235e-06
0.000133527
-3.47106e-06
0.000134258
-3.78996e-06
0.000135046
-4.08282e-06
0.000135887
-4.35262e-06
0.000136776
-4.60181e-06
0.00013771
-4.8324e-06
0.000138686
-5.04607e-06
0.0001397
-5.24423e-06
0.000140749
-5.42807e-06
0.000141832
-5.5986e-06
0.000142945
-5.75671e-06
0.000144087
-5.90313e-06
0.000145254
-6.03852e-06
0.000146446
-6.16343e-06
0.00014766
-6.27835e-06
0.000148893
-6.38371e-06
0.000150146
-6.47987e-06
0.000151414
-6.56715e-06
0.000152698
-6.64584e-06
0.000153995
-6.71618e-06
0.000155304
-6.77839e-06
0.000156622
-6.83265e-06
0.00015795
-6.87913e-06
0.000159284
-6.91796e-06
0.000160624
-6.94927e-06
0.000161968
-6.97315e-06
0.000163315
-6.98968e-06
0.000164663
-6.99892e-06
0.000166011
-7.00091e-06
0.000167357
-6.99569e-06
0.000168701
-6.98325e-06
0.00017004
-6.96359e-06
0.000171373
-6.93666e-06
0.000172699
-6.9024e-06
0.000174017
-6.86075e-06
0.000175324
-6.81159e-06
0.00017662
-6.75478e-06
0.000177903
-6.69016e-06
0.000179171
-6.61751e-06
0.000180423
-6.5366e-06
0.000181658
-6.44711e-06
0.000182873
-6.34872e-06
0.000184067
-6.24099e-06
0.000185238
-6.12346e-06
0.000186385
-5.99556e-06
0.000187505
-5.85663e-06
0.000188596
-5.70591e-06
0.000189656
-5.54248e-06
0.000190683
-5.36529e-06
0.000191674
-5.17312e-06
0.000192627
-4.96451e-06
0.000193539
-4.73776e-06
0.000194406
-4.49085e-06
0.000195226
-4.2214e-06
0.000195995
-3.9266e-06
0.000196709
-3.60309e-06
0.000197364
-3.24686e-06
0.000197956
-2.85311e-06
0.00019848
-2.41612e-06
0.000198933
-1.92896e-06
0.00019931
-1.38335e-06
0.000199609
-7.6933e-07
0.000199825
-7.50704e-08
0.000199961
7.13336e-07
0.00020002
1.61174e-06
0.000200013
2.63905e-06
0.00019996
3.81624e-06
0.000199896
5.16555e-06
0.000199877
6.70829e-06
0.000199987
8.46077e-06
0.000200344
1.0427e-05
0.000201104
1.25862e-05
0.000202442
1.48736e-05
0.000204502
1.71546e-05
1.92014e-05
0.000207271
0.000139846
-8.10754e-07
0.000140101
-1.55925e-06
0.000140467
-2.20637e-06
0.000140931
-2.77902e-06
0.000141484
-3.29193e-06
0.000142117
-3.75537e-06
0.000142823
-4.17683e-06
0.000143595
-4.56217e-06
0.000144428
-4.91595e-06
0.000145318
-5.24179e-06
0.000146259
-5.54264e-06
0.000147247
-5.82096e-06
0.00014828
-6.07876e-06
0.000149354
-6.31777e-06
0.000150465
-6.53942e-06
0.000151612
-6.74496e-06
0.000152791
-6.93543e-06
0.000154
-7.11175e-06
0.000155236
-7.2747e-06
0.000156498
-7.42495e-06
0.000157783
-7.56311e-06
0.000159089
-7.68968e-06
0.000160414
-7.8051e-06
0.000161757
-7.90978e-06
0.000163115
-8.00404e-06
0.000164488
-8.0882e-06
0.000165872
-8.16252e-06
0.000167267
-8.22721e-06
0.00016867
-8.28248e-06
0.000170081
-8.32851e-06
0.000171497
-8.36542e-06
0.000172918
-8.39336e-06
0.000174341
-8.4124e-06
0.000175765
-8.42264e-06
0.000177188
-8.42413e-06
0.000178609
-8.4169e-06
0.000180027
-8.40096e-06
0.00018144
-8.3763e-06
0.000182846
-8.34289e-06
0.000184245
-8.30067e-06
0.000185634
-8.24954e-06
0.000187012
-8.18939e-06
0.000188377
-8.12006e-06
0.000189728
-8.04137e-06
0.000191064
-7.95307e-06
0.000192383
-7.8549e-06
0.000193682
-7.74652e-06
0.000194961
-7.62753e-06
0.000196218
-7.49749e-06
0.00019745
-7.35584e-06
0.000198657
-7.20197e-06
0.000199835
-7.03514e-06
0.000200984
-6.8545e-06
0.000202101
-6.65907e-06
0.000203183
-6.44769e-06
0.000204229
-6.21904e-06
0.000205236
-5.97155e-06
0.000206202
-5.70341e-06
0.000207124
-5.41252e-06
0.000207999
-5.0964e-06
0.000208824
-4.75217e-06
0.000209598
-4.37647e-06
0.000210316
-3.96534e-06
0.000210977
-3.51417e-06
0.000211579
-3.01757e-06
0.000212119
-2.46926e-06
0.000212598
-1.86196e-06
0.000213016
-1.18729e-06
0.000213376
-4.35719e-07
0.000213686
4.03315e-07
0.000213957
1.34058e-06
0.000214209
2.38762e-06
0.000214469
3.55581e-06
0.00021478
4.85471e-06
0.000215199
6.28982e-06
0.0002158
7.85921e-06
0.000216678
9.54864e-06
0.00021794
1.1325e-05
0.000219685
1.31283e-05
0.000221975
1.48646e-05
1.6406e-05
0.00022477
0.000149636
-9.40967e-07
0.000149901
-1.82415e-06
0.000150282
-2.58811e-06
0.000150769
-3.26542e-06
0.000151349
-3.87257e-06
0.000152015
-4.42121e-06
0.000152759
-4.92013e-06
0.000153573
-5.3762e-06
0.000154452
-5.79481e-06
0.00015539
-6.18025e-06
0.000156384
-6.53603e-06
0.000157428
-6.86503e-06
0.000158519
-7.16968e-06
0.000159654
-7.45201e-06
0.000160828
-7.71373e-06
0.00016204
-7.9563e-06
0.000163285
-8.18099e-06
0.000164563
-8.38888e-06
0.000165869
-8.58089e-06
0.000167202
-8.75783e-06
0.00016856
-8.92041e-06
0.000169939
-9.06922e-06
0.000171339
-9.20481e-06
0.000172757
-9.32765e-06
0.000174192
-9.43813e-06
0.00017564
-9.53662e-06
0.000177101
-9.62343e-06
0.000178573
-9.69883e-06
0.000180054
-9.76306e-06
0.000181542
-9.81632e-06
0.000183036
-9.8588e-06
0.000184533
-9.89063e-06
0.000186033
-9.91194e-06
0.000187533
-9.92283e-06
0.000189033
-9.92336e-06
0.00019053
-9.91358e-06
0.000192022
-9.89353e-06
0.000193509
-9.86318e-06
0.000194989
-9.8225e-06
0.00019646
-9.77145e-06
0.000197921
-9.70992e-06
0.000199369
-9.63779e-06
0.000200804
-9.55489e-06
0.000202224
-9.46103e-06
0.000203627
-9.35595e-06
0.000205012
-9.23935e-06
0.000206376
-9.11087e-06
0.000207719
-8.9701e-06
0.000209038
-8.81654e-06
0.000210332
-8.64962e-06
0.000211599
-8.46867e-06
0.000212836
-8.27291e-06
0.000214043
-8.06146e-06
0.000215218
-7.83329e-06
0.000216357
-7.5872e-06
0.00021746
-7.32182e-06
0.000218524
-7.03558e-06
0.000219548
-6.72667e-06
0.000220528
-6.39299e-06
0.000221464
-6.03216e-06
0.000222353
-5.64141e-06
0.000223194
-5.21762e-06
0.000223986
-4.75718e-06
0.000224728
-4.256e-06
0.00022542
-3.7095e-06
0.000226063
-3.11249e-06
0.000226661
-2.45927e-06
0.000227217
-1.74363e-06
0.00022774
-9.58945e-07
0.000228242
-9.83562e-08
0.000228738
8.44377e-07
0.000229252
1.87373e-06
0.000229815
2.99325e-06
0.000230466
4.20337e-06
0.000231256
5.49977e-06
0.000232244
6.8712e-06
0.000233496
8.29704e-06
0.000235076
9.74467e-06
0.000237037
1.11674e-05
0.000239397
1.25043e-05
1.36851e-05
0.000242118
0.000160111
-1.07504e-06
0.000160385
-2.09891e-06
0.000160783
-2.98589e-06
0.000161292
-3.77372e-06
0.0001619
-4.48073e-06
0.000162599
-5.11981e-06
0.000163379
-5.70099e-06
0.000164236
-6.2322e-06
0.000165161
-6.71967e-06
0.000166149
-7.16839e-06
0.000167195
-7.58245e-06
0.000168296
-7.96521e-06
0.000169446
-8.3195e-06
0.000170642
-8.64768e-06
0.00017188
-8.95177e-06
0.000173157
-9.23347e-06
0.000174471
-9.49427e-06
0.000175817
-9.73541e-06
0.000177195
-9.95799e-06
0.0001786
-1.0163e-05
0.000180031
-1.03511e-05
0.000181485
-1.05232e-05
0.00018296
-1.06798e-05
0.000184454
-1.08216e-05
0.000185965
-1.09489e-05
0.000187491
-1.10621e-05
0.00018903
-1.11618e-05
0.000190579
-1.12481e-05
0.000192138
-1.13214e-05
0.000193704
-1.13819e-05
0.000195275
-1.14298e-05
0.00019685
-1.14653e-05
0.000198427
-1.14885e-05
0.000200004
-1.14997e-05
0.000201579
-1.14987e-05
0.000203152
-1.14858e-05
0.000204719
-1.14609e-05
0.00020628
-1.14241e-05
0.000207833
-1.13753e-05
0.000209376
-1.13145e-05
0.000210908
-1.12416e-05
0.000212427
-1.11565e-05
0.000213931
-1.10589e-05
0.000215419
-1.09488e-05
0.000216889
-1.08258e-05
0.00021834
-1.06896e-05
0.000219769
-1.05399e-05
0.000221175
-1.03763e-05
0.000222557
-1.01981e-05
0.000223912
-1.00049e-05
0.00022524
-9.796e-06
0.000226538
-9.57058e-06
0.000227804
-9.32776e-06
0.000229037
-9.06651e-06
0.000230236
-8.78569e-06
0.000231398
-8.48396e-06
0.000232522
-8.15981e-06
0.000233607
-7.81154e-06
0.000234652
-7.43724e-06
0.000235654
-7.03472e-06
0.000236614
-6.60156e-06
0.000237532
-6.13507e-06
0.000238407
-5.63226e-06
0.000239241
-5.08986e-06
0.000240036
-4.50434e-06
0.000240795
-3.87199e-06
0.000241525
-3.18892e-06
0.000242233
-2.45131e-06
0.000242929
-1.65551e-06
0.000243629
-7.98316e-07
0.000244351
1.22809e-07
0.000245117
1.10793e-06
0.000245956
2.15431e-06
0.000246902
3.25701e-06
0.000247995
4.4069e-06
0.000249276
5.5897e-06
0.000250788
6.78507e-06
0.000252567
7.96609e-06
0.000254635
9.09949e-06
0.000256991
1.01474e-05
1.10716e-05
0.000259605
0.000171319
-1.21317e-06
0.000171604
-2.38343e-06
0.000172017
-3.39955e-06
0.000172548
-4.30371e-06
0.000173183
-5.11618e-06
0.000173914
-5.85095e-06
0.000174733
-6.51927e-06
0.000175631
-7.1301e-06
0.000176602
-7.69055e-06
0.00017764
-8.20632e-06
0.00017874
-8.68209e-06
0.000179896
-9.12174e-06
0.000181105
-9.52851e-06
0.000182363
-9.90514e-06
0.000183665
-1.02539e-05
0.000185009
-1.05769e-05
0.000186391
-1.08757e-05
0.000187807
-1.11518e-05
0.000189256
-1.14065e-05
0.000190734
-1.16408e-05
0.000192239
-1.18557e-05
0.000193768
-1.2052e-05
0.000195319
-1.22306e-05
0.000196889
-1.23919e-05
0.000198477
-1.25365e-05
0.00020008
-1.2665e-05
0.000201697
-1.27778e-05
0.000203324
-1.28752e-05
0.00020496
-1.29575e-05
0.000206604
-1.30252e-05
0.000208252
-1.30783e-05
0.000209905
-1.31172e-05
0.000211558
-1.3142e-05
0.000213212
-1.31528e-05
0.000214863
-1.31498e-05
0.00021651
-1.3133e-05
0.000218152
-1.31026e-05
0.000219787
-1.30585e-05
0.000221412
-1.30007e-05
0.000223027
-1.29292e-05
0.00022463
-1.28439e-05
0.000226218
-1.27447e-05
0.000227791
-1.26315e-05
0.000229346
-1.25039e-05
0.000230882
-1.23619e-05
0.000232398
-1.22051e-05
0.000233891
-1.20332e-05
0.000235361
-1.18456e-05
0.000236805
-1.1642e-05
0.000238222
-1.14218e-05
0.000239611
-1.11843e-05
0.000240969
-1.09288e-05
0.000242296
-1.06545e-05
0.00024359
-1.03603e-05
0.000244849
-1.00453e-05
0.000246074
-9.70823e-06
0.000247262
-9.34774e-06
0.000248413
-8.96237e-06
0.000249526
-8.55048e-06
0.000250602
-8.11027e-06
0.00025164
-7.6398e-06
0.000252642
-7.13699e-06
0.000253609
-6.59964e-06
0.000254545
-6.02548e-06
0.000255453
-5.41222e-06
0.000256339
-4.75765e-06
0.000257209
-4.05977e-06
0.000258075
-3.31694e-06
0.000258948
-2.52813e-06
0.000259842
-1.69314e-06
0.000260778
-8.12727e-07
0.000261775
1.11023e-07
0.000262856
1.07278e-06
0.000264049
2.0642e-06
0.000265381
3.07475e-06
0.00026688
4.09066e-06
0.000268571
5.09479e-06
0.00027047
6.06697e-06
0.000272585
6.98472e-06
0.000274907
7.82507e-06
8.56733e-06
0.000277411
0.000183313
-1.35552e-06
0.000183607
-2.67767e-06
0.000184036
-3.82893e-06
0.000184588
-4.85515e-06
0.00018525
-5.77859e-06
0.000186014
-6.61432e-06
0.000186869
-7.37466e-06
0.000187809
-8.06962e-06
0.000188826
-8.70719e-06
0.000189913
-9.29381e-06
0.000191066
-9.83478e-06
0.000192279
-1.03345e-05
0.000193547
-1.07966e-05
0.000194867
-1.12243e-05
0.000196233
-1.16202e-05
0.000197643
-1.19865e-05
0.000199093
-1.23252e-05
0.000200579
-1.2638e-05
0.000202099
-1.29262e-05
0.00020365
-1.31912e-05
0.000205228
-1.3434e-05
0.000206832
-1.36556e-05
0.000208459
-1.38568e-05
0.000210105
-1.40383e-05
0.00021177
-1.42008e-05
0.00021345
-1.43449e-05
0.000215143
-1.44709e-05
0.000216848
-1.45795e-05
0.000218562
-1.46709e-05
0.000220282
-1.47456e-05
0.000222008
-1.48037e-05
0.000223736
-1.48455e-05
0.000225466
-1.48713e-05
0.000227195
-1.48813e-05
0.000228921
-1.48756e-05
0.000230642
-1.48543e-05
0.000232357
-1.48174e-05
0.000234064
-1.47651e-05
0.000235761
-1.46974e-05
0.000237447
-1.46142e-05
0.000239118
-1.45156e-05
0.000240775
-1.44013e-05
0.000242415
-1.42713e-05
0.000244037
-1.41254e-05
0.000245638
-1.39634e-05
0.000247218
-1.3785e-05
0.000248775
-1.35899e-05
0.000250308
-1.33777e-05
0.000251814
-1.3148e-05
0.000253292
-1.29002e-05
0.000254742
-1.26339e-05
0.000256162
-1.23483e-05
0.00025755
-1.20427e-05
0.000258906
-1.17164e-05
0.000260229
-1.13683e-05
0.000261519
-1.09975e-05
0.000262774
-1.0603e-05
0.000263995
-1.01835e-05
0.000265182
-9.73781e-06
0.000266337
-9.26465e-06
0.00026746
-8.76265e-06
0.000268553
-8.23046e-06
0.000269621
-7.66674e-06
0.000270665
-7.07026e-06
0.000271693
-6.43997e-06
0.000272711
-5.77509e-06
0.000273726
-5.07524e-06
0.00027475
-4.34061e-06
0.000275794
-3.57216e-06
0.000276872
-2.77175e-06
0.000278002
-1.94236e-06
0.000279201
-1.08808e-06
0.000280488
-2.14118e-07
0.000281881
6.7132e-07
0.000283398
1.55795e-06
0.000285055
2.43329e-06
0.000286866
3.28432e-06
0.000288836
4.09673e-06
0.000290965
4.85583e-06
0.000293242
5.54793e-06
6.16202e-06
0.000295647
0.000196146
-1.50222e-06
0.000196449
-2.98154e-06
0.000196894
-4.27381e-06
0.000197467
-5.4277e-06
0.000198156
-6.46756e-06
0.000198951
-7.40941e-06
0.000199843
-8.26662e-06
0.000200824
-9.05021e-06
0.000201886
-9.76906e-06
0.000203023
-1.04303e-05
0.000204228
-1.104e-05
0.000205497
-1.16029e-05
0.000206824
-1.21233e-05
0.000208204
-1.26047e-05
0.000209634
-1.305e-05
0.00021111
-1.34618e-05
0.000212627
-1.38423e-05
0.000214183
-1.41934e-05
0.000215774
-1.45167e-05
0.000217396
-1.48136e-05
0.000219048
-1.50853e-05
0.000220725
-1.53331e-05
0.000222427
-1.55577e-05
0.000224149
-1.576e-05
0.000225889
-1.59408e-05
0.000227645
-1.61006e-05
0.000229414
-1.62402e-05
0.000231195
-1.63599e-05
0.000232985
-1.64603e-05
0.000234781
-1.65417e-05
0.000236582
-1.66044e-05
0.000238386
-1.66488e-05
0.00024019
-1.66752e-05
0.000241992
-1.66836e-05
0.000243792
-1.66745e-05
0.000245585
-1.66478e-05
0.000247372
-1.66037e-05
0.000249149
-1.65423e-05
0.000250916
-1.64637e-05
0.00025267
-1.63679e-05
0.000254409
-1.62549e-05
0.000256133
-1.61245e-05
0.000257838
-1.59768e-05
0.000259525
-1.58116e-05
0.00026119
-1.56287e-05
0.000262833
-1.54279e-05
0.000264453
-1.52089e-05
0.000266047
-1.49716e-05
0.000267614
-1.47154e-05
0.000269154
-1.444e-05
0.000270665
-1.41449e-05
0.000272147
-1.38297e-05
0.000273598
-1.34936e-05
0.000275018
-1.31362e-05
0.000276406
-1.27568e-05
0.000277763
-1.23546e-05
0.000279089
-1.19288e-05
0.000280385
-1.14788e-05
0.000281651
-1.10037e-05
0.000282889
-1.05028e-05
0.000284102
-9.97531e-06
0.000285292
-9.42072e-06
0.000286464
-8.83852e-06
0.000287622
-8.22846e-06
0.000288773
-7.59058e-06
0.000289923
-6.92528e-06
0.000291081
-6.23347e-06
0.000292257
-5.51664e-06
0.000293462
-4.77703e-06
0.000294708
-4.01772e-06
0.000296009
-3.2427e-06
0.000297377
-2.45697e-06
0.00029883
-1.66643e-06
0.000300379
-8.77448e-07
0.000302034
-9.78835e-08
0.000303805
6.62657e-07
0.000305695
1.39427e-06
0.000307705
2.08685e-06
0.00030983
2.73054e-06
0.000312061
3.31762e-06
3.84238e-06
0.00031438
0.000209877
-1.65332e-06
0.00021019
-3.29491e-06
0.000210651
-4.73385e-06
0.000211244
-6.02091e-06
0.000211959
-7.18247e-06
0.000212785
-8.23552e-06
0.000213713
-9.19436e-06
0.000214734
-1.0071e-05
0.00021584
-1.08752e-05
0.000217025
-1.1615e-05
0.000218282
-1.22967e-05
0.000219605
-1.29261e-05
0.00022099
-1.35076e-05
0.00022243
-1.40452e-05
0.000223923
-1.45423e-05
0.000225463
-1.50016e-05
0.000227047
-1.54257e-05
0.00022867
-1.58168e-05
0.00023033
-1.61765e-05
0.000232024
-1.65065e-05
0.000233747
-1.68083e-05
0.000235497
-1.70829e-05
0.000237271
-1.73316e-05
0.000239067
-1.75552e-05
0.000240881
-1.77547e-05
0.000242711
-1.79306e-05
0.000244555
-1.80837e-05
0.00024641
-1.82145e-05
0.000248273
-1.83236e-05
0.000250143
-1.84114e-05
0.000252018
-1.84784e-05
0.000253894
-1.85248e-05
0.00025577
-1.85511e-05
0.000257644
-1.85574e-05
0.000259514
-1.8544e-05
0.000261378
-1.85111e-05
0.000263233
-1.84589e-05
0.000265079
-1.83876e-05
0.000266912
-1.82972e-05
0.000268732
-1.81878e-05
0.000270537
-1.80594e-05
0.000272325
-1.79121e-05
0.000274094
-1.77457e-05
0.000275843
-1.75604e-05
0.000277571
-1.73559e-05
0.000279275
-1.71321e-05
0.000280955
-1.68889e-05
0.00028261
-1.66261e-05
0.000284238
-1.63434e-05
0.000285839
-1.60405e-05
0.000287411
-1.57172e-05
0.000288955
-1.53731e-05
0.00029047
-1.50079e-05
0.000291955
-1.46212e-05
0.00029341
-1.42125e-05
0.000294838
-1.37815e-05
0.000296237
-1.33279e-05
0.000297609
-1.28513e-05
0.000298957
-1.23514e-05
0.000300282
-1.1828e-05
0.000301588
-1.1281e-05
0.000302878
-1.07106e-05
0.000304157
-1.0117e-05
0.000305429
-9.50085e-06
0.000306702
-8.86299e-06
0.000307981
-8.20473e-06
0.000309276
-7.52784e-06
0.000310594
-6.83463e-06
0.000311945
-6.12799e-06
0.000313338
-5.41147e-06
0.000314785
-4.6893e-06
0.000316294
-3.96636e-06
0.000317876
-3.24814e-06
0.000319539
-2.54059e-06
0.000321291
-1.85007e-06
0.000323136
-1.18239e-06
0.000325075
-5.44104e-07
0.000327103
5.84038e-08
0.000329215
6.18713e-07
0.000331401
1.13214e-06
1.59568e-06
0.000333647
0.00022457
-1.8088e-06
0.000224892
-3.61755e-06
0.000225367
-5.20859e-06
0.00022598
-6.63413e-06
0.000226721
-7.92249e-06
0.000227577
-9.09164e-06
0.000228539
-1.01568e-05
0.000229599
-1.11308e-05
0.000230749
-1.20244e-05
0.00023198
-1.28462e-05
0.000233287
-1.36035e-05
0.000234663
-1.43023e-05
0.000236104
-1.49477e-05
0.000237603
-1.55441e-05
0.000239156
-1.60951e-05
0.000240759
-1.66041e-05
0.000242407
-1.70736e-05
0.000244096
-1.7506e-05
0.000245824
-1.79035e-05
0.000247585
-1.82678e-05
0.000249378
-1.86005e-05
0.000251198
-1.89029e-05
0.000253043
-1.91762e-05
0.00025491
-1.94216e-05
0.000256795
-1.96399e-05
0.000258697
-1.98319e-05
0.000260612
-1.99985e-05
0.000262538
-2.01403e-05
0.000264473
-2.02579e-05
0.000266414
-2.03518e-05
0.000268358
-2.04225e-05
0.000270304
-2.04703e-05
0.000272249
-2.04958e-05
0.000274191
-2.04992e-05
0.000276128
-2.04809e-05
0.000278058
-2.0441e-05
0.000279979
-2.03798e-05
0.00028189
-2.02976e-05
0.000283787
-2.01945e-05
0.00028567
-2.00706e-05
0.000287537
-1.99261e-05
0.000289387
-1.97609e-05
0.000291216
-1.95753e-05
0.000293025
-1.93692e-05
0.000294812
-1.91426e-05
0.000296576
-1.88955e-05
0.000298315
-1.86279e-05
0.000300029
-1.83396e-05
0.000301716
-1.80306e-05
0.000303377
-1.77009e-05
0.00030501
-1.73502e-05
0.000306615
-1.69786e-05
0.000308193
-1.65857e-05
0.000309744
-1.61717e-05
0.000311268
-1.57364e-05
0.000312767
-1.52797e-05
0.000314241
-1.48018e-05
0.000315692
-1.43026e-05
0.000317123
-1.37824e-05
0.000318537
-1.32416e-05
0.000319936
-1.26806e-05
0.000321326
-1.21001e-05
0.00032271
-1.1501e-05
0.000324094
-1.08845e-05
0.000325483
-1.02522e-05
0.000326884
-9.60592e-06
0.000328305
-8.94787e-06
0.000329751
-8.28073e-06
0.00033123
-7.6076e-06
0.000332751
-6.93203e-06
0.00033432
-6.25795e-06
0.000335943
-5.58968e-06
0.000337627
-4.93183e-06
0.000339375
-4.28919e-06
0.000341192
-3.66661e-06
0.000343078
-3.0688e-06
0.000345034
-2.50031e-06
0.000347058
-1.96509e-06
0.000349143
-1.46587e-06
0.00035128
-1.00525e-06
-5.84485e-07
0.00035346
0.000240291
-1.96857e-06
0.000240622
-3.9491e-06
0.000241111
-5.69736e-06
0.000241744
-7.26645e-06
0.000242508
-8.68648e-06
0.000243393
-9.97642e-06
0.000244388
-1.11523e-05
0.000245485
-1.22278e-05
0.000246676
-1.32147e-05
0.000247952
-1.41221e-05
0.000249307
-1.49582e-05
0.000250734
-1.57293e-05
0.000252228
-1.64413e-05
0.000253783
-1.70988e-05
0.000255394
-1.7706e-05
0.000257057
-1.82664e-05
0.000258766
-1.87829e-05
0.000260519
-1.92583e-05
0.000262311
-1.96948e-05
0.000264137
-2.00943e-05
0.000265996
-2.04587e-05
0.000267883
-2.07895e-05
0.000269795
-2.10879e-05
0.000271729
-2.13553e-05
0.000273682
-2.15927e-05
0.000275652
-2.18009e-05
0.000277634
-2.19809e-05
0.000279628
-2.21334e-05
0.000281629
-2.22591e-05
0.000283636
-2.23586e-05
0.000285647
-2.24324e-05
0.000287658
-2.24811e-05
0.000289668
-2.25052e-05
0.000291674
-2.25049e-05
0.000293674
-2.24807e-05
0.000295666
-2.2433e-05
0.000297649
-2.23621e-05
0.000299619
-2.22681e-05
0.000301577
-2.21514e-05
0.000303519
-2.20123e-05
0.000305444
-2.18508e-05
0.00030735
-2.16673e-05
0.000309237
-2.14618e-05
0.000311103
-2.12345e-05
0.000312946