/*--------------------------------*- C++ -*----------------------------------*\
| =========                 |                                                 |
| \\      /  F ield         | OpenFOAM: The Open Source CFD Toolbox           |
|  \\    /   O peration     | Version:  2106                                  |
|   \\  /    A nd           | Website:  www.openfoam.com                      |
|    \\/     M anipulation  |                                                 |
\*---------------------------------------------------------------------------*/
FoamFile
{
    version     2.0;
    format      ascii;
    arch        "LSB;label=32;scalar=64";
    class       volScalarField;
    location    "7.2";
    object      T;
}
// * * * * * * * * * * * * * * * * * * * * * * * * * * * * * * * * * * * * * //

dimensions      [0 0 0 1 0 0 0];

internalField   nonuniform List<scalar> 
12013
(
300.003
300.011
300.018
300.026
300.034
300.042
300.051
300.06
300.069
300.079
300.089
300.099
300.11
300.121
300.133
300.145
300.158
300.171
300.184
300.198
300.212
300.227
300.242
300.258
300.274
300.291
300.308
300.326
300.345
300.364
300.383
300.403
300.424
300.446
300.468
300.49
300.514
300.538
300.563
300.588
300.614
300.641
300.669
300.697
300.727
300.757
300.788
300.82
300.852
300.886
300.921
300.956
300.993
301.031
301.069
301.109
301.15
301.192
301.236
301.281
301.327
301.374
301.423
301.474
301.526
301.581
301.637
301.695
301.755
301.818
301.883
301.952
302.023
302.098
302.178
302.263
302.353
302.452
302.561
302.684
302.832
300.003
300.011
300.018
300.026
300.034
300.042
300.051
300.06
300.069
300.079
300.089
300.099
300.11
300.121
300.133
300.145
300.158
300.171
300.184
300.198
300.212
300.227
300.242
300.258
300.274
300.291
300.308
300.326
300.345
300.364
300.383
300.403
300.424
300.446
300.468
300.49
300.514
300.538
300.563
300.588
300.614
300.641
300.669
300.697
300.727
300.757
300.788
300.82
300.852
300.886
300.921
300.956
300.993
301.03
301.069
301.109
301.15
301.192
301.236
301.28
301.326
301.374
301.423
301.473
301.526
301.58
301.636
301.694
301.754
301.816
301.882
301.95
302.021
302.095
302.174
302.258
302.347
302.443
302.548
302.663
302.789
300.003
300.011
300.018
300.026
300.034
300.042
300.051
300.06
300.069
300.079
300.089
300.099
300.11
300.121
300.133
300.145
300.158
300.17
300.184
300.198
300.212
300.227
300.242
300.258
300.274
300.291
300.308
300.326
300.345
300.364
300.383
300.403
300.424
300.446
300.468
300.49
300.514
300.538
300.562
300.588
300.614
300.641
300.669
300.697
300.726
300.757
300.788
300.819
300.852
300.886
300.92
300.956
300.992
301.03
301.069
301.108
301.149
301.191
301.235
301.279
301.325
301.373
301.422
301.472
301.524
301.578
301.634
301.691
301.751
301.813
301.878
301.945
302.016
302.089
302.167
302.248
302.334
302.426
302.524
302.627
302.735
300.003
300.011
300.018
300.026
300.034
300.042
300.051
300.06
300.069
300.079
300.089
300.099
300.11
300.121
300.133
300.145
300.158
300.17
300.184
300.198
300.212
300.227
300.242
300.258
300.274
300.291
300.308
300.326
300.345
300.364
300.383
300.403
300.424
300.445
300.468
300.49
300.514
300.538
300.562
300.588
300.614
300.641
300.668
300.697
300.726
300.756
300.787
300.819
300.852
300.885
300.92
300.955
300.992
301.029
301.068
301.107
301.148
301.19
301.233
301.278
301.324
301.371
301.42
301.47
301.522
301.575
301.63
301.688
301.747
301.808
301.872
301.938
302.007
302.079
302.154
302.233
302.315
302.401
302.491
302.584
302.677
300.003
300.011
300.018
300.026
300.034
300.042
300.051
300.06
300.069
300.079
300.089
300.099
300.11
300.121
300.133
300.145
300.158
300.17
300.184
300.198
300.212
300.227
300.242
300.258
300.274
300.291
300.308
300.326
300.344
300.363
300.383
300.403
300.424
300.445
300.467
300.49
300.513
300.537
300.562
300.587
300.614
300.64
300.668
300.697
300.726
300.756
300.787
300.818
300.851
300.884
300.919
300.954
300.991
301.028
301.066
301.106
301.147
301.189
301.232
301.276
301.321
301.368
301.417
301.466
301.518
301.571
301.626
301.682
301.74
301.801
301.863
301.928
301.995
302.065
302.138
302.213
302.29
302.37
302.453
302.536
302.618
300.003
300.011
300.018
300.026
300.034
300.042
300.051
300.06
300.069
300.079
300.089
300.099
300.11
300.121
300.133
300.145
300.157
300.17
300.184
300.198
300.212
300.227
300.242
300.258
300.274
300.291
300.308
300.326
300.344
300.363
300.383
300.403
300.424
300.445
300.467
300.49
300.513
300.537
300.562
300.587
300.613
300.64
300.668
300.696
300.725
300.755
300.786
300.817
300.85
300.883
300.918
300.953
300.989
301.027
301.065
301.104
301.145
301.186
301.229
301.273
301.318
301.365
301.413
301.462
301.513
301.565
301.619
301.675
301.732
301.791
301.852
301.915
301.98
302.047
302.116
302.187
302.26
302.334
302.41
302.485
302.559
300.003
300.011
300.018
300.026
300.034
300.042
300.051
300.06
300.069
300.079
300.089
300.099
300.11
300.121
300.133
300.145
300.157
300.17
300.184
300.198
300.212
300.227
300.242
300.258
300.274
300.291
300.308
300.326
300.344
300.363
300.383
300.403
300.424
300.445
300.467
300.489
300.513
300.537
300.561
300.587
300.613
300.639
300.667
300.695
300.724
300.754
300.785
300.816
300.849
300.882
300.916
300.951
300.987
301.024
301.063
301.102
301.142
301.183
301.226
301.269
301.314
301.36
301.407
301.456
301.506
301.557
301.61
301.665
301.721
301.779
301.838
301.899
301.961
302.025
302.091
302.158
302.226
302.295
302.363
302.432
302.499
300.003
300.011
300.018
300.026
300.034
300.042
300.051
300.06
300.069
300.079
300.089
300.099
300.11
300.121
300.133
300.145
300.157
300.17
300.184
300.197
300.212
300.226
300.242
300.257
300.274
300.29
300.308
300.326
300.344
300.363
300.382
300.403
300.423
300.445
300.466
300.489
300.512
300.536
300.561
300.586
300.612
300.639
300.666
300.694
300.723
300.753
300.784
300.815
300.847
300.88
300.914
300.949
300.985
301.022
301.06
301.098
301.138
301.179
301.221
301.264
301.308
301.354
301.401
301.448
301.498
301.548
301.6
301.653
301.707
301.763
301.82
301.879
301.939
302
302.062
302.124
302.188
302.251
302.315
302.377
302.439
300.003
300.011
300.018
300.026
300.034
300.042
300.051
300.06
300.069
300.079
300.089
300.099
300.11
300.121
300.133
300.145
300.157
300.17
300.184
300.197
300.212
300.226
300.242
300.257
300.274
300.29
300.308
300.325
300.344
300.363
300.382
300.402
300.423
300.444
300.466
300.488
300.512
300.535
300.56
300.585
300.611
300.638
300.665
300.693
300.722
300.751
300.782
300.813
300.845
300.878
300.912
300.947
300.982
301.019
301.056
301.094
301.134
301.174
301.216
301.258
301.302
301.346
301.392
301.439
301.487
301.537
301.587
301.639
301.691
301.745
301.8
301.856
301.913
301.971
302.029
302.088
302.147
302.206
302.264
302.322
302.378
300.003
300.011
300.018
300.026
300.034
300.042
300.051
300.06
300.069
300.079
300.089
300.099
300.11
300.121
300.133
300.145
300.157
300.17
300.183
300.197
300.211
300.226
300.241
300.257
300.273
300.29
300.307
300.325
300.343
300.362
300.382
300.402
300.422
300.444
300.465
300.488
300.511
300.535
300.559
300.584
300.61
300.636
300.664
300.692
300.72
300.75
300.78
300.811
300.843
300.875
300.909
300.943
300.978
301.015
301.052
301.09
301.128
301.168
301.209
301.251
301.294
301.338
301.382
301.428
301.475
301.523
301.572
301.622
301.672
301.724
301.777
301.83
301.884
301.938
301.993
302.048
302.103
302.158
302.212
302.265
302.317
300.003
300.011
300.018
300.026
300.034
300.042
300.051
300.06
300.069
300.079
300.089
300.099
300.11
300.121
300.133
300.145
300.157
300.17
300.183
300.197
300.211
300.226
300.241
300.257
300.273
300.29
300.307
300.325
300.343
300.362
300.381
300.401
300.422
300.443
300.465
300.487
300.51
300.534
300.558
300.583
300.609
300.635
300.662
300.69
300.718
300.747
300.777
300.808
300.84
300.872
300.905
300.939
300.974
301.01
301.046
301.084
301.122
301.161
301.201
301.242
301.284
301.327
301.371
301.415
301.461
301.507
301.554
301.602
301.651
301.7
301.75
301.801
301.852
301.903
301.955
302.006
302.057
302.108
302.158
302.207
302.256
300.003
300.011
300.018
300.026
300.034
300.042
300.05
300.059
300.069
300.078
300.088
300.099
300.11
300.121
300.133
300.145
300.157
300.17
300.183
300.197
300.211
300.226
300.241
300.257
300.273
300.289
300.307
300.324
300.342
300.361
300.381
300.4
300.421
300.442
300.464
300.486
300.509
300.532
300.557
300.581
300.607
300.633
300.66
300.687
300.716
300.745
300.774
300.805
300.836
300.868
300.901
300.934
300.969
301.004
301.04
301.077
301.114
301.153
301.192
301.232
301.273
301.314
301.357
301.4
301.444
301.489
301.534
301.58
301.627
301.674
301.721
301.769
301.817
301.865
301.914
301.962
302.009
302.056
302.103
302.149
302.194
300.003
300.011
300.018
300.026
300.034
300.042
300.05
300.059
300.069
300.078
300.088
300.099
300.11
300.121
300.132
300.144
300.157
300.17
300.183
300.197
300.211
300.225
300.241
300.256
300.272
300.289
300.306
300.324
300.342
300.361
300.38
300.4
300.42
300.441
300.463
300.485
300.507
300.531
300.555
300.58
300.605
300.631
300.657
300.685
300.713
300.741
300.771
300.801
300.832
300.863
300.896
300.929
300.963
300.997
301.032
301.068
301.105
301.143
301.181
301.22
301.26
301.3
301.341
301.383
301.425
301.468
301.512
301.556
301.6
301.645
301.69
301.735
301.78
301.825
301.87
301.915
301.96
302.004
302.047
302.09
302.132
300.003
300.011
300.018
300.026
300.033
300.042
300.05
300.059
300.069
300.078
300.088
300.099
300.109
300.121
300.132
300.144
300.157
300.169
300.183
300.196
300.21
300.225
300.24
300.256
300.272
300.288
300.305
300.323
300.341
300.36
300.379
300.399
300.419
300.44
300.461
300.483
300.506
300.529
300.553
300.577
300.602
300.628
300.655
300.682
300.709
300.738
300.767
300.796
300.827
300.858
300.89
300.922
300.955
300.989
301.024
301.059
301.095
301.131
301.169
301.206
301.245
301.284
301.324
301.364
301.404
301.445
301.487
301.529
301.571
301.613
301.656
301.698
301.741
301.783
301.825
301.867
301.909
301.95
301.99
302.03
302.069
300.003
300.011
300.018
300.025
300.033
300.042
300.05
300.059
300.069
300.078
300.088
300.099
300.109
300.12
300.132
300.144
300.156
300.169
300.182
300.196
300.21
300.225
300.24
300.255
300.271
300.288
300.305
300.322
300.34
300.359
300.378
300.397
300.418
300.438
300.46
300.481
300.504
300.527
300.551
300.575
300.6
300.625
300.651
300.678
300.705
300.733
300.762
300.791
300.821
300.851
300.883
300.914
300.947
300.98
301.014
301.048
301.083
301.118
301.154
301.191
301.228
301.266
301.304
301.342
301.381
301.42
301.46
301.5
301.54
301.58
301.62
301.66
301.7
301.739
301.779
301.818
301.856
301.895
301.932
301.969
302.006
300.003
300.01
300.018
300.025
300.033
300.042
300.05
300.059
300.068
300.078
300.088
300.098
300.109
300.12
300.132
300.144
300.156
300.169
300.182
300.196
300.21
300.224
300.239
300.255
300.271
300.287
300.304
300.321
300.339
300.358
300.377
300.396
300.416
300.437
300.458
300.479
300.502
300.524
300.548
300.572
300.596
300.621
300.647
300.673
300.7
300.728
300.756
300.785
300.814
300.844
300.875
300.906
300.937
300.969
301.002
301.036
301.069
301.104
301.139
301.174
301.21
301.246
301.282
301.319
301.356
301.393
301.431
301.468
301.506
301.544
301.582
301.619
301.657
301.694
301.731
301.767
301.803
301.839
301.874
301.909
301.943
300.003
300.01
300.018
300.025
300.033
300.042
300.05
300.059
300.068
300.078
300.088
300.098
300.109
300.12
300.132
300.143
300.156
300.168
300.182
300.195
300.209
300.224
300.238
300.254
300.27
300.286
300.303
300.32
300.338
300.356
300.375
300.394
300.414
300.435
300.456
300.477
300.499
300.522
300.545
300.568
300.592
300.617
300.643
300.668
300.695
300.722
300.75
300.778
300.806
300.836
300.865
300.896
300.926
300.958
300.989
301.022
301.054
301.088
301.121
301.155
301.189
301.224
301.259
301.294
301.329
301.364
301.4
301.435
301.471
301.506
301.542
301.577
301.612
301.647
301.681
301.715
301.749
301.782
301.815
301.847
301.879
300.003
300.01
300.018
300.025
300.033
300.042
300.05
300.059
300.068
300.078
300.088
300.098
300.109
300.12
300.131
300.143
300.155
300.168
300.181
300.195
300.208
300.223
300.238
300.253
300.269
300.285
300.302
300.319
300.336
300.355
300.373
300.392
300.412
300.432
300.453
300.474
300.496
300.518
300.541
300.564
300.588
300.612
300.637
300.663
300.689
300.715
300.742
300.77
300.798
300.826
300.855
300.884
300.914
300.945
300.975
301.006
301.038
301.07
301.102
301.134
301.167
301.2
301.233
301.266
301.3
301.333
301.367
301.4
301.434
301.467
301.5
301.533
301.566
301.599
301.631
301.663
301.694
301.725
301.756
301.786
301.816
300.003
300.01
300.018
300.025
300.033
300.041
300.05
300.059
300.068
300.078
300.087
300.098
300.108
300.119
300.131
300.143
300.155
300.167
300.18
300.194
300.208
300.222
300.237
300.252
300.268
300.284
300.3
300.317
300.335
300.353
300.371
300.39
300.41
300.43
300.45
300.471
300.492
300.514
300.537
300.56
300.583
300.607
300.631
300.656
300.682
300.707
300.734
300.76
300.788
300.815
300.843
300.872
300.901
300.93
300.96
300.989
301.02
301.05
301.081
301.112
301.143
301.174
301.206
301.237
301.269
301.301
301.332
301.364
301.395
301.427
301.458
301.489
301.519
301.55
301.58
301.61
301.639
301.668
301.697
301.725
301.752
300.003
300.01
300.018
300.025
300.033
300.041
300.05
300.059
300.068
300.077
300.087
300.097
300.108
300.119
300.13
300.142
300.154
300.167
300.18
300.193
300.207
300.221
300.236
300.251
300.266
300.282
300.299
300.316
300.333
300.351
300.369
300.388
300.407
300.427
300.447
300.467
300.488
300.51
300.532
300.554
300.577
300.601
300.625
300.649
300.674
300.699
300.724
300.75
300.777
300.803
300.831
300.858
300.886
300.914
300.942
300.971
301
301.029
301.059
301.088
301.118
301.147
301.177
301.207
301.237
301.267
301.296
301.326
301.356
301.385
301.414
301.443
301.472
301.5
301.528
301.556
301.583
301.611
301.637
301.664
301.689
300.003
300.01
300.018
300.025
300.033
300.041
300.05
300.058
300.068
300.077
300.087
300.097
300.108
300.119
300.13
300.142
300.154
300.166
300.179
300.192
300.206
300.22
300.234
300.249
300.265
300.281
300.297
300.314
300.331
300.348
300.366
300.385
300.404
300.423
300.443
300.463
300.484
300.505
300.526
300.548
300.571
300.594
300.617
300.641
300.665
300.689
300.714
300.739
300.765
300.79
300.817
300.843
300.87
300.897
300.924
300.951
300.979
301.007
301.035
301.063
301.091
301.119
301.147
301.175
301.203
301.231
301.259
301.287
301.315
301.342
301.37
301.397
301.424
301.45
301.476
301.502
301.528
301.553
301.578
301.603
301.627
300.003
300.01
300.018
300.025
300.033
300.041
300.049
300.058
300.067
300.077
300.087
300.097
300.107
300.118
300.129
300.141
300.153
300.165
300.178
300.191
300.205
300.219
300.233
300.248
300.263
300.279
300.295
300.311
300.328
300.346
300.363
300.381
300.4
300.419
300.439
300.458
300.479
300.499
300.52
300.542
300.564
300.586
300.609
300.632
300.655
300.679
300.703
300.727
300.752
300.776
300.802
300.827
300.853
300.878
300.904
300.93
300.957
300.983
301.01
301.036
301.063
301.089
301.116
301.142
301.169
301.195
301.221
301.247
301.273
301.299
301.325
301.35
301.375
301.4
301.424
301.449
301.472
301.496
301.519
301.542
301.565
300.003
300.01
300.017
300.025
300.033
300.041
300.049
300.058
300.067
300.076
300.086
300.096
300.107
300.117
300.129
300.14
300.152
300.164
300.177
300.19
300.203
300.217
300.231
300.246
300.261
300.277
300.292
300.309
300.325
300.342
300.36
300.378
300.396
300.415
300.434
300.453
300.473
300.493
300.514
300.535
300.556
300.577
300.599
300.622
300.644
300.667
300.69
300.714
300.737
300.761
300.785
300.81
300.834
300.859
300.883
300.908
300.933
300.958
300.983
301.008
301.034
301.059
301.084
301.109
301.133
301.158
301.183
301.207
301.231
301.255
301.279
301.303
301.326
301.35
301.372
301.395
301.417
301.439
301.461
301.482
301.503
300.003
300.01
300.017
300.025
300.033
300.041
300.049
300.058
300.067
300.076
300.086
300.096
300.106
300.117
300.128
300.139
300.151
300.163
300.176
300.189
300.202
300.216
300.23
300.244
300.259
300.274
300.29
300.306
300.322
300.339
300.356
300.374
300.391
300.41
300.428
300.447
300.467
300.486
300.506
300.527
300.547
300.568
300.589
300.611
300.633
300.655
300.677
300.7
300.722
300.745
300.768
300.791
300.815
300.838
300.862
300.885
300.909
300.932
300.956
300.98
301.003
301.027
301.051
301.074
301.097
301.121
301.144
301.166
301.189
301.212
301.234
301.256
301.278
301.3
301.321
301.342
301.363
301.383
301.404
301.423
301.443
300.003
300.01
300.017
300.025
300.032
300.04
300.049
300.057
300.066
300.075
300.085
300.095
300.105
300.116
300.127
300.138
300.15
300.162
300.174
300.187
300.2
300.214
300.228
300.242
300.257
300.272
300.287
300.303
300.319
300.335
300.352
300.369
300.387
300.404
300.423
300.441
300.46
300.479
300.498
300.518
300.538
300.558
300.579
300.599
300.62
300.642
300.663
300.684
300.706
300.728
300.75
300.772
300.794
300.817
300.839
300.861
300.884
300.906
300.928
300.951
300.973
300.995
301.017
301.039
301.061
301.083
301.104
301.126
301.147
301.168
301.189
301.21
301.23
301.25
301.27
301.29
301.309
301.328
301.347
301.366
301.384
300.003
300.01
300.017
300.025
300.032
300.04
300.048
300.057
300.066
300.075
300.084
300.094
300.105
300.115
300.126
300.137
300.149
300.161
300.173
300.185
300.198
300.212
300.225
300.239
300.254
300.269
300.284
300.299
300.315
300.331
300.347
300.364
300.381
300.398
300.416
300.434
300.452
300.471
300.49
300.509
300.528
300.548
300.567
300.587
300.607
300.628
300.648
300.669
300.689
300.71
300.731
300.752
300.773
300.794
300.816
300.837
300.858
300.879
300.9
300.921
300.942
300.963
300.984
301.004
301.025
301.045
301.065
301.085
301.105
301.125
301.144
301.164
301.183
301.202
301.22
301.238
301.257
301.274
301.292
301.309
301.327
300.003
300.01
300.017
300.024
300.032
300.04
300.048
300.056
300.065
300.074
300.084
300.094
300.104
300.114
300.125
300.136
300.147
300.159
300.171
300.184
300.196
300.21
300.223
300.237
300.251
300.265
300.28
300.295
300.311
300.326
300.342
300.359
300.375
300.392
300.409
300.427
300.444
300.462
300.481
300.499
300.518
300.536
300.555
300.574
300.594
300.613
300.633
300.652
300.672
300.692
300.712
300.732
300.752
300.772
300.792
300.812
300.832
300.852
300.871
300.891
300.911
300.931
300.95
300.969
300.989
301.008
301.027
301.045
301.064
301.082
301.101
301.119
301.136
301.154
301.171
301.189
301.205
301.222
301.239
301.255
301.271
300.003
300.01
300.017
300.024
300.032
300.039
300.048
300.056
300.065
300.074
300.083
300.093
300.103
300.113
300.124
300.135
300.146
300.157
300.169
300.182
300.194
300.207
300.22
300.234
300.248
300.262
300.276
300.291
300.306
300.321
300.337
300.353
300.369
300.385
300.402
300.419
300.436
300.453
300.471
300.489
300.507
300.525
300.543
300.561
300.58
300.598
300.617
300.636
300.654
300.673
300.692
300.711
300.73
300.749
300.768
300.787
300.806
300.824
300.843
300.862
300.88
300.899
300.917
300.935
300.953
300.971
300.989
301.006
301.024
301.041
301.058
301.075
301.091
301.108
301.124
301.14
301.156
301.172
301.187
301.202
301.217
300.003
300.01
300.017
300.024
300.031
300.039
300.047
300.055
300.064
300.073
300.082
300.092
300.102
300.112
300.122
300.133
300.144
300.156
300.167
300.179
300.192
300.204
300.217
300.231
300.244
300.258
300.272
300.287
300.301
300.316
300.331
300.347
300.362
300.378
300.394
300.411
300.427
300.444
300.461
300.478
300.495
300.512
300.53
300.547
300.565
300.583
300.601
300.618
300.636
300.654
300.672
300.69
300.708
300.726
300.744
300.762
300.78
300.797
300.815
300.832
300.85
300.867
300.884
300.901
300.918
300.935
300.952
300.968
300.984
301.001
301.017
301.032
301.048
301.063
301.079
301.094
301.108
301.123
301.137
301.152
301.166
300.003
300.01
300.017
300.024
300.031
300.039
300.047
300.055
300.063
300.072
300.081
300.091
300.101
300.111
300.121
300.132
300.142
300.154
300.165
300.177
300.189
300.202
300.214
300.227
300.241
300.254
300.268
300.282
300.296
300.311
300.325
300.34
300.356
300.371
300.387
300.402
300.418
300.434
300.451
300.467
300.484
300.5
300.517
300.534
300.55
300.567
300.584
300.601
300.618
300.635
300.652
300.67
300.686
300.703
300.72
300.737
300.754
300.771
300.787
300.804
300.82
300.837
300.853
300.869
300.885
300.9
300.916
300.932
300.947
300.962
300.977
300.992
301.006
301.021
301.035
301.049
301.063
301.077
301.09
301.104
301.117
300.003
300.01
300.016
300.023
300.031
300.038
300.046
300.054
300.063
300.071
300.08
300.09
300.099
300.109
300.119
300.13
300.141
300.152
300.163
300.175
300.186
300.199
300.211
300.224
300.237
300.25
300.263
300.277
300.291
300.305
300.319
300.334
300.349
300.363
300.379
300.394
300.409
300.425
300.44
300.456
300.472
300.488
300.504
300.52
300.536
300.552
300.568
300.584
300.601
300.617
300.633
300.649
300.665
300.681
300.697
300.713
300.729
300.745
300.761
300.776
300.792
300.807
300.822
300.838
300.853
300.867
300.882
300.897
300.911
300.925
300.939
300.953
300.967
300.981
300.994
301.007
301.02
301.033
301.046
301.058
301.071
300.003
300.01
300.016
300.023
300.03
300.038
300.046
300.054
300.062
300.071
300.079
300.089
300.098
300.108
300.118
300.128
300.139
300.15
300.161
300.172
300.184
300.196
300.208
300.22
300.233
300.246
300.259
300.272
300.286
300.299
300.313
300.327
300.342
300.356
300.37
300.385
300.4
300.415
300.43
300.445
300.46
300.476
300.491
300.506
300.522
300.537
300.553
300.568
300.583
300.599
300.614
300.63
300.645
300.66
300.675
300.691
300.706
300.721
300.735
300.75
300.765
300.779
300.794
300.808
300.822
300.836
300.85
300.864
300.877
300.891
300.904
300.917
300.93
300.943
300.956
300.968
300.98
300.993
301.004
301.016
301.028
300.003
300.009
300.016
300.023
300.03
300.037
300.045
300.053
300.061
300.07
300.078
300.087
300.097
300.106
300.116
300.126
300.137
300.147
300.158
300.169
300.181
300.192
300.204
300.216
300.229
300.241
300.254
300.267
300.28
300.294
300.307
300.321
300.334
300.348
300.363
300.377
300.391
300.405
300.42
300.434
300.449
300.464
300.478
300.493
300.508
300.523
300.537
300.552
300.567
300.582
300.596
300.611
300.626
300.64
300.655
300.669
300.683
300.697
300.712
300.726
300.739
300.753
300.767
300.78
300.794
300.807
300.82
300.833
300.846
300.859
300.871
300.884
300.896
300.908
300.92
300.932
300.944
300.955
300.966
300.977
300.988
300.003
300.009
300.016
300.023
300.03
300.037
300.044
300.052
300.06
300.069
300.077
300.086
300.095
300.105
300.115
300.124
300.135
300.145
300.156
300.167
300.178
300.189
300.201
300.213
300.225
300.237
300.25
300.262
300.275
300.288
300.301
300.314
300.328
300.341
300.355
300.369
300.382
300.396
300.41
300.424
300.438
300.452
300.467
300.481
300.495
300.509
300.523
300.537
300.552
300.566
300.58
300.594
300.608
300.621
300.635
300.649
300.663
300.676
300.69
300.703
300.716
300.729
300.742
300.755
300.768
300.78
300.793
300.805
300.818
300.83
300.842
300.853
300.865
300.876
300.888
300.899
300.91
300.921
300.932
300.942
300.953
300.003
300.009
300.016
300.022
300.029
300.036
300.044
300.052
300.06
300.068
300.076
300.085
300.094
300.103
300.113
300.123
300.133
300.143
300.153
300.164
300.175
300.186
300.198
300.209
300.221
300.233
300.245
300.257
300.27
300.283
300.295
300.308
300.321
300.334
300.348
300.361
300.374
300.388
300.401
300.415
300.428
300.442
300.456
300.469
300.483
300.497
300.51
300.524
300.537
300.551
300.564
300.578
300.591
300.604
300.618
300.631
300.644
300.657
300.67
300.682
300.695
300.708
300.72
300.732
300.745
300.757
300.769
300.78
300.792
300.804
300.815
300.826
300.837
300.848
300.859
300.87
300.88
300.891
300.901
300.911
300.921
300.003
300.009
300.015
300.022
300.029
300.036
300.043
300.051
300.059
300.067
300.075
300.084
300.093
300.102
300.111
300.121
300.131
300.141
300.151
300.162
300.173
300.183
300.195
300.206
300.218
300.229
300.241
300.253
300.265
300.278
300.29
300.303
300.315
300.328
300.341
300.354
300.367
300.38
300.393
300.406
300.419
300.433
300.446
300.459
300.472
300.485
300.499
300.512
300.525
300.538
300.551
300.564
300.577
300.589
300.602
300.615
300.627
300.64
300.652
300.664
300.677
300.689
300.701
300.712
300.724
300.736
300.747
300.759
300.77
300.781
300.792
300.802
300.813
300.824
300.834
300.844
300.854
300.864
300.874
300.884
300.894
300.003
300.009
300.015
300.022
300.029
300.036
300.043
300.05
300.058
300.066
300.074
300.083
300.092
300.101
300.11
300.119
300.129
300.139
300.149
300.16
300.17
300.181
300.192
300.203
300.214
300.226
300.237
300.249
300.261
300.273
300.285
300.298
300.31
300.323
300.335
300.348
300.36
300.373
300.386
300.399
300.412
300.424
300.437
300.45
300.463
300.476
300.488
300.501
300.514
300.527
300.539
300.552
300.564
300.577
300.589
300.601
300.613
300.625
300.637
300.649
300.661
300.673
300.684
300.696
300.707
300.718
300.729
300.74
300.751
300.762
300.772
300.783
300.793
300.803
300.813
300.823
300.833
300.842
300.852
300.861
300.87
300.003
300.009
300.015
300.022
300.028
300.035
300.042
300.05
300.057
300.065
300.074
300.082
300.091
300.1
300.109
300.118
300.128
300.137
300.147
300.158
300.168
300.179
300.19
300.2
300.212
300.223
300.234
300.246
300.258
300.27
300.281
300.294
300.306
300.318
300.33
300.343
300.355
300.367
300.38
300.392
300.405
300.418
300.43
300.443
300.455
300.468
300.48
300.493
300.505
300.517
300.53
300.542
300.554
300.566
300.578
300.59
300.602
300.614
300.625
300.637
300.648
300.66
300.671
300.682
300.693
300.704
300.715
300.725
300.736
300.746
300.757
300.767
300.777
300.787
300.796
300.806
300.815
300.825
300.834
300.843
300.852
300.003
300.009
300.015
300.021
300.028
300.035
300.042
300.049
300.057
300.065
300.073
300.081
300.09
300.099
300.108
300.117
300.126
300.136
300.146
300.156
300.166
300.177
300.188
300.198
300.209
300.221
300.232
300.243
300.255
300.267
300.278
300.29
300.302
300.314
300.326
300.339
300.351
300.363
300.375
300.388
300.4
300.412
300.425
300.437
300.449
300.462
300.474
300.486
300.498
300.511
300.523
300.535
300.547
300.558
300.57
300.582
300.593
300.605
300.616
300.628
300.639
300.65
300.661
300.672
300.683
300.693
300.704
300.714
300.725
300.735
300.745
300.755
300.765
300.774
300.784
300.793
300.803
300.812
300.821
300.83
300.838
300.003
300.009
300.015
300.021
300.028
300.035
300.042
300.049
300.057
300.064
300.072
300.081
300.089
300.098
300.107
300.116
300.126
300.135
300.145
300.155
300.165
300.176
300.186
300.197
300.208
300.219
300.23
300.242
300.253
300.265
300.276
300.288
300.3
300.312
300.324
300.336
300.348
300.36
300.372
300.385
300.397
300.409
300.421
300.433
300.446
300.458
300.47
300.482
300.494
300.506
300.518
300.53
300.542
300.553
300.565
300.576
300.588
300.599
300.611
300.622
300.633
300.644
300.655
300.665
300.676
300.687
300.697
300.707
300.717
300.727
300.737
300.747
300.757
300.766
300.776
300.785
300.794
300.803
300.812
300.821
300.83
300.003
300.009
300.015
300.021
300.028
300.034
300.042
300.049
300.056
300.064
300.072
300.08
300.089
300.098
300.107
300.116
300.125
300.135
300.145
300.155
300.165
300.175
300.186
300.196
300.207
300.218
300.229
300.241
300.252
300.264
300.275
300.287
300.299
300.311
300.323
300.335
300.347
300.359
300.371
300.383
300.395
300.407
300.419
300.432
300.444
300.456
300.468
300.48
300.492
300.504
300.516
300.527
300.539
300.551
300.562
300.574
300.585
300.596
300.608
300.619
300.63
300.641
300.651
300.662
300.673
300.683
300.694
300.704
300.714
300.724
300.734
300.743
300.753
300.762
300.772
300.781
300.79
300.799
300.808
300.817
300.825
303.027
303.156
303.233
303.306
303.369
303.421
303.456
303.496
303.536
303.573
303.604
303.639
303.673
303.707
303.741
303.774
303.805
303.833
303.863
303.893
303.922
303.951
303.981
304.01
304.039
304.068
304.096
304.124
304.152
304.178
304.206
304.233
304.259
304.285
304.311
304.337
304.363
304.388
304.413
304.438
304.463
304.487
304.512
304.54
304.566
304.591
304.615
304.64
304.666
304.692
304.716
304.739
304.763
304.788
304.813
304.839
304.865
304.891
304.917
304.94
304.961
304.984
305.008
305.032
305.057
305.082
305.106
305.131
305.156
305.18
305.204
305.227
305.251
305.275
305.298
305.321
305.344
305.368
305.39
305.415
305.443
305.468
305.491
305.514
305.536
305.556
305.58
305.607
305.631
305.653
305.673
305.697
305.723
305.745
305.769
305.796
305.82
305.841
305.867
305.89
305.91
305.934
305.954
305.977
306.002
306.029
306.052
306.07
306.093
306.112
306.133
306.157
306.181
306.206
306.228
306.245
306.266
306.289
306.311
306.331
306.346
306.365
306.385
306.404
306.422
306.436
306.452
306.468
306.484
306.499
306.513
306.526
306.538
306.548
306.557
306.565
306.571
306.576
306.579
306.581
306.58
306.578
306.574
306.567
306.558
306.547
306.533
306.516
306.495
306.47
306.439
306.405
306.371
306.33
306.284
306.232
306.174
306.075
305.985
305.872
305.725
302.926
303.039
303.128
303.203
303.268
303.324
303.37
303.414
303.455
303.495
303.531
303.567
303.603
303.639
303.673
303.707
303.739
303.769
303.8
303.83
303.861
303.891
303.921
303.951
303.98
304.009
304.038
304.066
304.094
304.122
304.149
304.177
304.204
304.23
304.257
304.283
304.309
304.335
304.36
304.386
304.411
304.436
304.462
304.488
304.515
304.54
304.565
304.59
304.616
304.641
304.666
304.69
304.715
304.74
304.765
304.791
304.817
304.843
304.868
304.892
304.915
304.938
304.962
304.987
305.011
305.036
305.061
305.086
305.11
305.135
305.159
305.183
305.206
305.23
305.254
305.278
305.301
305.325
305.348
305.373
305.4
305.425
305.449
305.472
305.494
305.516
305.54
305.566
305.59
305.612
305.634
305.657
305.683
305.706
305.73
305.756
305.781
305.803
305.828
305.851
305.873
305.896
305.918
305.941
305.965
305.991
306.014
306.034
306.056
306.077
306.099
306.122
306.147
306.171
306.193
306.211
306.233
306.255
306.277
306.297
306.314
306.332
306.352
306.371
306.39
306.404
306.42
306.436
306.453
306.468
306.482
306.495
306.507
306.518
306.527
306.535
306.541
306.546
306.55
306.551
306.551
306.549
306.544
306.538
306.529
306.518
306.504
306.486
306.466
306.441
306.41
306.376
306.34
306.299
306.252
306.197
306.135
306.04
305.945
305.826
305.664
302.843
302.943
303.029
303.104
303.171
303.229
303.281
303.328
303.373
303.414
303.454
303.492
303.53
303.566
303.602
303.636
303.669
303.702
303.733
303.765
303.796
303.827
303.857
303.887
303.917
303.947
303.976
304.005
304.034
304.062
304.09
304.117
304.145
304.172
304.199
304.225
304.252
304.278
304.304
304.33
304.356
304.381
304.407
304.434
304.46
304.486
304.511