/*--------------------------------*- C++ -*----------------------------------*\
| =========                 |                                                 |
| \\      /  F ield         | OpenFOAM: The Open Source CFD Toolbox           |
|  \\    /   O peration     | Version:  2106                                  |
|   \\  /    A nd           | Website:  www.openfoam.com                      |
|    \\/     M anipulation  |                                                 |
\*---------------------------------------------------------------------------*/
FoamFile
{
    version     2.0;
    format      ascii;
    arch        "LSB;label=32;scalar=64";
    class       volVectorField;
    location    "7.2";
    object      U;
}
// * * * * * * * * * * * * * * * * * * * * * * * * * * * * * * * * * * * * * //

dimensions      [0 1 -1 0 0 0 0];

internalField   nonuniform List<vector> 
12013
(
(0.100038 -1.05062e-05 0)
(0.100192 -1.94318e-05 0)
(0.100442 -2.77201e-05 0)
(0.100765 -3.53753e-05 0)
(0.101155 -4.25781e-05 0)
(0.101606 -4.9431e-05 0)
(0.102112 -5.59987e-05 0)
(0.102668 -6.23336e-05 0)
(0.10327 -6.84752e-05 0)
(0.103915 -7.44542e-05 0)
(0.104599 -8.02947e-05 0)
(0.105319 -8.60165e-05 0)
(0.106073 -9.16361e-05 0)
(0.106858 -9.71661e-05 0)
(0.107673 -0.000102616 0)
(0.108514 -0.000107996 0)
(0.109381 -0.000113312 0)
(0.110271 -0.000118568 0)
(0.111183 -0.000123769 0)
(0.112115 -0.000128917 0)
(0.113065 -0.000134013 0)
(0.114032 -0.000139058 0)
(0.115016 -0.000144053 0)
(0.116013 -0.000148995 0)
(0.117024 -0.000153882 0)
(0.118046 -0.000158713 0)
(0.119079 -0.000163484 0)
(0.120121 -0.000168192 0)
(0.121172 -0.00017283 0)
(0.12223 -0.000177396 0)
(0.123294 -0.000181881 0)
(0.124362 -0.000186281 0)
(0.125435 -0.000190587 0)
(0.12651 -0.000194791 0)
(0.127586 -0.000198885 0)
(0.128663 -0.000202858 0)
(0.12974 -0.0002067 0)
(0.130815 -0.000210397 0)
(0.131887 -0.000213938 0)
(0.132955 -0.000217308 0)
(0.134019 -0.00022049 0)
(0.135076 -0.000223466 0)
(0.136127 -0.000226216 0)
(0.137169 -0.000228717 0)
(0.138201 -0.000230945 0)
(0.139223 -0.000232873 0)
(0.140232 -0.000234467 0)
(0.141228 -0.000235692 0)
(0.14221 -0.000236507 0)
(0.143175 -0.000236867 0)
(0.144122 -0.000236718 0)
(0.145049 -0.000235998 0)
(0.145955 -0.000234637 0)
(0.146838 -0.000232553 0)
(0.147695 -0.000229649 0)
(0.148525 -0.000225812 0)
(0.149324 -0.000220906 0)
(0.150089 -0.000214772 0)
(0.150818 -0.000207216 0)
(0.151506 -0.000198004 0)
(0.152149 -0.00018685 0)
(0.152742 -0.0001734 0)
(0.15328 -0.000157214 0)
(0.153754 -0.000137735 0)
(0.154159 -0.000114252 0)
(0.154482 -8.58465e-05 0)
(0.154712 -5.1311e-05 0)
(0.154834 -9.03313e-06 0)
(0.154828 4.31952e-05 0)
(0.154671 0.000108511 0)
(0.154329 0.000191395 0)
(0.15376 0.00029844 0)
(0.152903 0.000439651 0)
(0.151675 0.000630715 0)
(0.149953 0.000897078 0)
(0.147553 0.00128149 0)
(0.144191 0.00185847 0)
(0.139393 0.00276583 0)
(0.132367 0.00430144 0)
(0.122019 0.00734175 0)
(0.110137 0.016011 0)
(0.100035 -3.20778e-05 0)
(0.100188 -5.95764e-05 0)
(0.100437 -8.5032e-05 0)
(0.100759 -0.000108525 0)
(0.101149 -0.000130631 0)
(0.101598 -0.000151661 0)
(0.102103 -0.000171814 0)
(0.102658 -0.000191251 0)
(0.10326 -0.000210093 0)
(0.103903 -0.000228435 0)
(0.104586 -0.000246351 0)
(0.105305 -0.000263903 0)
(0.106058 -0.000281139 0)
(0.106843 -0.000298099 0)
(0.107656 -0.000314815 0)
(0.108496 -0.000331313 0)
(0.109362 -0.000347612 0)
(0.11025 -0.00036373 0)
(0.111161 -0.000379676 0)
(0.112091 -0.000395458 0)
(0.11304 -0.000411083 0)
(0.114006 -0.000426549 0)
(0.114988 -0.000441858 0)
(0.115984 -0.000457006 0)
(0.116993 -0.000471986 0)
(0.118013 -0.000486792 0)
(0.119045 -0.000501413 0)
(0.120085 -0.000515837 0)
(0.121134 -0.000530051 0)
(0.12219 -0.000544038 0)
(0.123252 -0.00055778 0)
(0.124318 -0.000571257 0)
(0.125389 -0.000584447 0)
(0.126462 -0.000597324 0)
(0.127536 -0.00060986 0)
(0.128611 -0.000622026 0)
(0.129685 -0.000633789 0)
(0.130758 -0.00064511 0)
(0.131828 -0.000655949 0)
(0.132894 -0.000666262 0)
(0.133955 -0.000675999 0)
(0.13501 -0.000685104 0)
(0.136058 -0.000693517 0)
(0.137097 -0.000701168 0)
(0.138127 -0.000707981 0)
(0.139146 -0.00071387 0)
(0.140153 -0.00071874 0)
(0.141146 -0.000722479 0)
(0.142125 -0.000724965 0)
(0.143087 -0.000726054 0)
(0.144031 -0.000725586 0)
(0.144956 -0.000723373 0)
(0.14586 -0.0007192 0)
(0.14674 -0.000712816 0)
(0.147595 -0.000703926 0)
(0.148422 -0.000692185 0)
(0.149218 -0.000677184 0)
(0.149982 -0.000658435 0)
(0.150709 -0.000635352 0)
(0.151395 -0.000607224 0)
(0.152038 -0.000573186 0)
(0.152631 -0.000532169 0)
(0.15317 -0.000482842 0)
(0.153647 -0.00042353 0)
(0.154054 -0.0003521 0)
(0.154384 -0.000265801 0)
(0.154623 -0.000161029 0)
(0.154758 -3.30009e-05 0)
(0.154771 0.000124769 0)
(0.154641 0.000321347 0)
(0.154339 0.000569589 0)
(0.153828 0.000888137 0)
(0.15306 0.00130475 0)
(0.15197 0.00186188 0)
(0.150469 0.00262621 0)
(0.148438 0.00370492 0)
(0.145713 0.00527308 0)
(0.142073 0.00761914 0)
(0.137244 0.0112221 0)
(0.131242 0.0167883 0)
(0.126355 0.0246964 0)
(0.100032 -5.45201e-05 0)
(0.100184 -0.000102188 0)
(0.10043 -0.00014603 0)
(0.10075 -0.00018648 0)
(0.101137 -0.000224534 0)
(0.101585 -0.000260727 0)
(0.102088 -0.000295408 0)
(0.102641 -0.000328852 0)
(0.10324 -0.00036127 0)
(0.103882 -0.000392823 0)
(0.104563 -0.000423643 0)
(0.10528 -0.000453833 0)
(0.10603 -0.000483478 0)
(0.106812 -0.000512646 0)
(0.107623 -0.000541393 0)
(0.108461 -0.000569762 0)
(0.109324 -0.000597789 0)
(0.11021 -0.0006255 0)
(0.111117 -0.000652915 0)
(0.112045 -0.000680047 0)
(0.112991 -0.000706904 0)
(0.113954 -0.000733489 0)
(0.114932 -0.0007598 0)
(0.115925 -0.000785831 0)
(0.116931 -0.000811573 0)
(0.117948 -0.000837013 0)
(0.118976 -0.000862132 0)
(0.120013 -0.00088691 0)
(0.121058 -0.000911324 0)
(0.12211 -0.000935346 0)
(0.123168 -0.000958944 0)
(0.12423 -0.000982084 0)
(0.125297 -0.00100473 0)
(0.126365 -0.00102683 0)
(0.127435 -0.00104834 0)
(0.128506 -0.00106922 0)
(0.129576 -0.0010894 0)
(0.130644 -0.00110881 0)
(0.131709 -0.0011274 0)
(0.13277 -0.00114508 0)
(0.133826 -0.00116176 0)
(0.134876 -0.00117736 0)
(0.135919 -0.00119176 0)
(0.136953 -0.00120486 0)
(0.137977 -0.00121651 0)
(0.138991 -0.00122657 0)
(0.139992 -0.00123488 0)
(0.14098 -0.00124125 0)
(0.141953 -0.00124547 0)
(0.14291 -0.00124729 0)
(0.143849 -0.00124644 0)
(0.144768 -0.00124261 0)
(0.145666 -0.00123542 0)
(0.146541 -0.00122444 0)
(0.14739 -0.00120919 0)
(0.148212 -0.00118908 0)
(0.149004 -0.00116341 0)
(0.149763 -0.00113137 0)
(0.150486 -0.00109196 0)
(0.15117 -0.00104401 0)
(0.151811 -0.000986063 0)
(0.152403 -0.000916343 0)
(0.152943 -0.000832648 0)
(0.153423 -0.000732223 0)
(0.153837 -0.000611576 0)
(0.154176 -0.000466237 0)
(0.15443 -0.000290408 0)
(0.154587 -7.64701e-05 0)
(0.154633 0.00018573 0)
(0.154549 0.00051008 0)
(0.154314 0.000915867 0)
(0.153902 0.00143028 0)
(0.15328 0.00209232 0)
(0.152409 0.00295894 0)
(0.151246 0.00411436 0)
(0.149746 0.00568384 0)
(0.147877 0.00785192 0)
(0.145642 0.0108809 0)
(0.143155 0.0151141 0)
(0.140841 0.020848 0)
(0.139965 0.0275581 0)
(0.100029 -7.76371e-05 0)
(0.100178 -0.000147144 0)
(0.100421 -0.000210642 0)
(0.100738 -0.00026926 0)
(0.101122 -0.000324381 0)
(0.101567 -0.00037679 0)
(0.102066 -0.000426999 0)
(0.102616 -0.00047541 0)
(0.103212 -0.000522327 0)
(0.10385 -0.000567989 0)
(0.104528 -0.000612582 0)
(0.105241 -0.00065626 0)
(0.105988 -0.000699145 0)
(0.106766 -0.000741335 0)
(0.107574 -0.000782912 0)
(0.108407 -0.000823938 0)
(0.109266 -0.000864465 0)
(0.110148 -0.000904531 0)
(0.111051 -0.000944164 0)
(0.111975 -0.000983383 0)
(0.112916 -0.0010222 0)
(0.113874 -0.00106062 0)
(0.114848 -0.00109864 0)
(0.115836 -0.00113625 0)
(0.116836 -0.00117343 0)
(0.117848 -0.00121018 0)
(0.118871 -0.00124645 0)
(0.119902 -0.00128223 0)
(0.120942 -0.00131748 0)
(0.121988 -0.00135215 0)
(0.12304 -0.0013862 0)
(0.124096 -0.00141959 0)
(0.125156 -0.00145225 0)
(0.126219 -0.00148412 0)
(0.127282 -0.00151514 0)
(0.128346 -0.00154523 0)
(0.129409 -0.0015743 0)
(0.13047 -0.00160227 0)
(0.131528 -0.00162903 0)
(0.132581 -0.00165447 0)
(0.13363 -0.00167847 0)
(0.134672 -0.00170089 0)
(0.135707 -0.00172159 0)
(0.136733 -0.00174039 0)
(0.13775 -0.0017571 0)
(0.138755 -0.00177151 0)
(0.139748 -0.00178339 0)
(0.140728 -0.00179247 0)
(0.141693 -0.00179844 0)
(0.142641 -0.00180097 0)
(0.143572 -0.00179965 0)
(0.144483 -0.00179404 0)
(0.145373 -0.00178361 0)
(0.14624 -0.00176776 0)
(0.147082 -0.00174579 0)
(0.147897 -0.00171688 0)
(0.148682 -0.00168004 0)
(0.149435 -0.00163414 0)
(0.150153 -0.0015778 0)
(0.150833 -0.00150937 0)
(0.151471 -0.00142684 0)
(0.152063 -0.00132779 0)
(0.152604 -0.0012092 0)
(0.15309 -0.00106735 0)
(0.153513 -0.000897555 0)
(0.153867 -0.000693887 0)
(0.154144 -0.00044876 0)
(0.154335 -0.000152365 0)
(0.154428 0.000208071 0)
(0.154411 0.000649499 0)
(0.154271 0.00119478 0)
(0.153993 0.00187491 0)
(0.153562 0.00273221 0)
(0.152966 0.00382479 0)
(0.152202 0.00523211 0)
(0.151281 0.0070611 0)
(0.150253 0.00944941 0)
(0.149229 0.0125564 0)
(0.14843 0.0165183 0)
(0.148241 0.0212957 0)
(0.149215 0.0262373 0)
(0.100026 -0.000101435 0)
(0.100172 -0.000194358 0)
(0.100411 -0.000278824 0)
(0.100723 -0.000356883 0)
(0.101103 -0.000430259 0)
(0.101543 -0.000499999 0)
(0.102039 -0.000566794 0)
(0.102584 -0.000631183 0)
(0.103176 -0.000693574 0)
(0.103809 -0.000754285 0)
(0.104482 -0.000813565 0)
(0.105191 -0.00087162 0)
(0.105933 -0.000928611 0)
(0.106706 -0.000984671 0)
(0.107508 -0.00103991 0)
(0.108336 -0.00109441 0)
(0.109189 -0.00114823 0)
(0.110066 -0.00120144 0)
(0.110963 -0.00125406 0)
(0.11188 -0.00130612 0)
(0.112815 -0.00135765 0)
(0.113767 -0.00140863 0)
(0.114735 -0.00145908 0)
(0.115716 -0.00150897 0)
(0.116709 -0.00155829 0)
(0.117714 -0.00160702 0)
(0.118729 -0.00165512 0)
(0.119753 -0.00170254 0)
(0.120785 -0.00174925 0)
(0.121823 -0.00179518 0)
(0.122867 -0.00184029 0)
(0.123915 -0.0018845 0)
(0.124967 -0.00192773 0)
(0.12602 -0.00196991 0)
(0.127075 -0.00201095 0)
(0.12813 -0.00205073 0)
(0.129183 -0.00208916 0)
(0.130235 -0.00212611 0)
(0.131283 -0.00216145 0)
(0.132327 -0.00219502 0)
(0.133365 -0.00222668 0)
(0.134397 -0.00225623 0)
(0.135422 -0.00228348 0)
(0.136438 -0.00230821 0)
(0.137443 -0.00233016 0)
(0.138438 -0.00234907 0)
(0.139421 -0.00236461 0)
(0.14039 -0.00237645 0)
(0.141343 -0.00238418 0)
(0.142281 -0.00238736 0)
(0.143201 -0.00238547 0)
(0.144101 -0.00237792 0)
(0.144981 -0.00236405 0)
(0.145838 -0.00234307 0)
(0.14667 -0.00231408 0)
(0.147476 -0.00227603 0)
(0.148253 -0.00222768 0)
(0.148999 -0.00216756 0)
(0.149711 -0.00209394 0)
(0.150387 -0.00200477 0)
(0.151022 -0.00189753 0)
(0.151615 -0.00176923 0)
(0.15216 -0.00161618 0)
(0.152654 -0.00143388 0)
(0.153091 -0.00121673 0)
(0.153467 -0.000957764 0)
(0.153776 -0.000648213 0)
(0.154011 -0.000276985 0)
(0.154166 0.000169977 0)
(0.154234 0.000710563 0)
(0.15421 0.00136804 0)
(0.154091 0.00217246 0)
(0.153877 0.00316252 0)
(0.153577 0.00438748 0)
(0.153211 0.00590873 0)
(0.152825 0.00779934 0)
(0.152497 0.0101382 0)
(0.152355 0.0129915 0)
(0.152591 0.0163668 0)
(0.153455 0.0201162 0)
(0.155167 0.0237662 0)
(0.100023 -0.000125922 0)
(0.100166 -0.000243748 0)
(0.100399 -0.000350523 0)
(0.100707 -0.000449337 0)
(0.101081 -0.000542212 0)
(0.101516 -0.000630455 0)
(0.102006 -0.000714951 0)
(0.102546 -0.000796383 0)
(0.103131 -0.00087527 0)
(0.103759 -0.000952014 0)
(0.104426 -0.00102694 0)
(0.105128 -0.00110029 0)
(0.105864 -0.00117229 0)
(0.106631 -0.00124311 0)
(0.107426 -0.00131286 0)
(0.108247 -0.00138167 0)
(0.109093 -0.00144962 0)
(0.109962 -0.00151678 0)
(0.110852 -0.00158318 0)
(0.111762 -0.00164887 0)
(0.112689 -0.00171386 0)
(0.113633 -0.00177816 0)
(0.114591 -0.00184177 0)
(0.115564 -0.00190466 0)
(0.116549 -0.00196682 0)
(0.117545 -0.00202821 0)
(0.11855 -0.00208879 0)
(0.119565 -0.00214851 0)
(0.120587 -0.00220731 0)
(0.121615 -0.00226512 0)
(0.122649 -0.00232186 0)
(0.123686 -0.00237746 0)
(0.124727 -0.00243181 0)
(0.12577 -0.00248482 0)
(0.126813 -0.00253636 0)
(0.127856 -0.00258631 0)
(0.128898 -0.00263453 0)
(0.129938 -0.00268087 0)
(0.130974 -0.00272516 0)
(0.132005 -0.00276722 0)
(0.133032 -0.00280683 0)
(0.134051 -0.00284379 0)
(0.135063 -0.00287783 0)
(0.136065 -0.00290868 0)
(0.137058 -0.00293603 0)
(0.13804 -0.00295954 0)
(0.139009 -0.00297883 0)
(0.139965 -0.00299345 0)
(0.140905 -0.00300293 0)
(0.14183 -0.0030067 0)
(0.142737 -0.00300414 0)
(0.143624 -0.00299454 0)
(0.144492 -0.00297707 0)
(0.145337 -0.00295078 0)
(0.146158 -0.0029146 0)
(0.146953 -0.00286724 0)
(0.147721 -0.00280723 0)
(0.148459 -0.00273285 0)
(0.149164 -0.00264204 0)
(0.149836 -0.00253238 0)
(0.15047 -0.00240101 0)
(0.151065 -0.00224447 0)
(0.151616 -0.0020586 0)
(0.152122 -0.00183837 0)
(0.152578 -0.00157767 0)
(0.152982 -0.00126899 0)
(0.15333 -0.000903153 0)
(0.153619 -0.000468808 0)
(0.153848 4.79934e-05 0)
(0.154014 0.000664063 0)
(0.15412 0.00140029 0)
(0.15417 0.00228222 0)
(0.154176 0.00334047 0)
(0.154159 0.00461068 0)
(0.154151 0.00613242 0)
(0.154206 0.00794558 0)
(0.154399 0.0100824 0)
(0.154837 0.0125512 0)
(0.155651 0.0153078 0)
(0.156977 0.0182096 0)
(0.158891 0.0209639 0)
(0.10002 -0.000151108 0)
(0.10016 -0.000295249 0)
(0.100387 -0.000425686 0)
(0.100689 -0.000546588 0)
(0.101057 -0.000660249 0)
(0.101485 -0.000768217 0)
(0.101968 -0.000871577 0)
(0.102501 -0.000971165 0)
(0.10308 -0.00106762 0)
(0.1037 -0.00116142 0)
(0.10436 -0.00125298 0)
(0.105055 -0.00134261 0)
(0.105783 -0.00143055 0)
(0.106541 -0.00151703 0)
(0.107328 -0.0016022 0)
(0.108141 -0.00168619 0)
(0.108978 -0.00176911 0)
(0.109838 -0.00185105 0)
(0.110719 -0.00193204 0)
(0.111619 -0.00201215 0)
(0.112537 -0.00209138 0)
(0.11347 -0.00216975 0)
(0.114419 -0.00224726 0)
(0.115381 -0.00232387 0)
(0.116355 -0.00239957 0)
(0.11734 -0.00247431 0)
(0.118334 -0.00254804 0)
(0.119337 -0.0026207 0)
(0.120347 -0.00269221 0)
(0.121363 -0.00276249 0)
(0.122384 -0.00283146 0)
(0.123409 -0.002899 0)
(0.124437 -0.00296499 0)
(0.125466 -0.00302932 0)
(0.126496 -0.00309184 0)
(0.127526 -0.0031524 0)
(0.128554 -0.00321083 0)
(0.129579 -0.00326694 0)
(0.130601 -0.00332053 0)
(0.131617 -0.00337138 0)
(0.132629 -0.00341924 0)
(0.133633 -0.00346384 0)
(0.134629 -0.00350488 0)
(0.135617 -0.00354202 0)
(0.136594 -0.00357491 0)
(0.13756 -0.00360312 0)
(0.138514 -0.0036262 0)
(0.139454 -0.00364363 0)
(0.140379 -0.00365484 0)
(0.141289 -0.00365917 0)
(0.142181 -0.0036559 0)
(0.143054 -0.00364417 0)
(0.143907 -0.00362303 0)
(0.144739 -0.0035914 0)
(0.145547 -0.00354801 0)
(0.146331 -0.00349142 0)
(0.147089 -0.00341994 0)
(0.147818 -0.00333164 0)
(0.148518 -0.00322423 0)
(0.149186 -0.00309505 0)
(0.14982 -0.00294095 0)
(0.150418 -0.00275824 0)
(0.150979 -0.00254251 0)
(0.1515 -0.00228854 0)
(0.15198 -0.00199011 0)
(0.152417 -0.00163977 0)
(0.15281 -0.00122867 0)
(0.153161 -0.000746211 0)
(0.153469 -0.000179878 0)
(0.153739 0.000484867 0)
(0.153976 0.00126451 0)
(0.154192 0.00217817 0)
(0.154403 0.00324684 0)
(0.154634 0.00449228 0)
(0.15492 0.00593484 0)
(0.155308 0.00758952 0)
(0.155858 0.00945944 0)
(0.156645 0.0115258 0)
(0.157747 0.0137335 0)
(0.159228 0.015975 0)
(0.161105 0.0180802 0)
(0.100017 -0.000177018 0)
(0.100153 -0.000348813 0)
(0.100375 -0.000504266 0)
(0.10067 -0.000648594 0)
(0.101031 -0.000784356 0)
(0.101452 -0.000913309 0)
(0.101927 -0.00103674 0)
(0.102452 -0.00115564 0)
(0.103022 -0.00127076 0)
(0.103634 -0.0013827 0)
(0.104284 -0.00149193 0)
(0.10497 -0.00159882 0)
(0.105689 -0.00170368 0)
(0.106438 -0.00180676 0)
(0.107215 -0.00190825 0)
(0.108018 -0.00200832 0)
(0.108845 -0.00210709 0)
(0.109694 -0.00220464 0)
(0.110564 -0.00230106 0)
(0.111452 -0.00239639 0)
(0.112359 -0.00249065 0)
(0.11328 -0.00258386 0)
(0.114217 -0.00267601 0)
(0.115166 -0.00276707 0)
(0.116127 -0.00285701 0)
(0.117099 -0.00294578 0)
(0.11808 -0.00303332 0)
(0.11907 -0.00311955 0)
(0.120066 -0.00320439 0)
(0.121068 -0.00328773 0)
(0.122074 -0.00336947 0)
(0.123084 -0.00344949 0)
(0.124097 -0.00352763 0)
(0.12511 -0.00360377 0)
(0.126125 -0.00367771 0)
(0.127138 -0.0037493 0)
(0.12815 -0.00381832 0)
(0.129158 -0.00388455 0)
(0.130163 -0.00394776 0)
(0.131163 -0.00400769 0)
(0.132157 -0.00406404 0)
(0.133144 -0.0041165 0)
(0.134123 -0.00416471 0)
(0.135093 -0.0042083 0)
(0.136053 -0.00424683 0)
(0.137001 -0.00427982 0)
(0.137937 -0.00430675 0)
(0.13886 -0.00432703 0)
(0.139768 -0.00434 0)
(0.14066 -0.00434491 0)
(0.141535 -0.00434093 0)
(0.142392 -0.00432711 0)
(0.14323 -0.00430238 0)
(0.144047 -0.00426553 0)
(0.144842 -0.00421518 0)
(0.145614 -0.00414973 0)
(0.146361 -0.00406736 0)
(0.147082 -0.00396598 0)
(0.147776 -0.00384319 0)
(0.148441 -0.00369617 0)
(0.149076 -0.00352169 0)
(0.14968 -0.003316 0)
(0.150253 -0.00307472 0)
(0.150792 -0.00279277 0)
(0.151299 -0.00246423 0)
(0.151773 -0.00208229 0)
(0.152216 -0.00163904 0)
(0.15263 -0.00112545 0)
(0.153019 -0.000531299 0)
(0.153391 0.000154894 0)
(0.153753 0.000944599 0)
(0.154119 0.00185013 0)
(0.154506 0.00288352 0)
(0.154939 0.0040551 0)
(0.155447 0.00537132 0)
(0.156068 0.00683182 0)
(0.156843 0.00842537 0)
(0.157819 0.0101247 0)
(0.159036 0.0118814 0)
(0.160522 0.0136218 0)
(0.162272 0.0152496 0)
(0.100014 -0.000203688 0)
(0.100147 -0.000404411 0)
(0.100363 -0.000586227 0)
(0.10065 -0.000755316 0)
(0.101003 -0.000914503 0)
(0.101416 -0.00106573 0)
(0.101882 -0.00121046 0)
(0.102398 -0.00134986 0)
(0.102958 -0.0014848 0)
(0.10356 -0.00161597 0)
(0.104201 -0.00174392 0)
(0.104876 -0.00186911 0)
(0.105584 -0.00199188 0)
(0.106321 -0.00211253 0)
(0.107087 -0.00223129 0)
(0.107878 -0.00234834 0)
(0.108693 -0.00246383 0)
(0.10953 -0.00257788 0)
(0.110387 -0.00269055 0)
(0.111263 -0.00280192 0)
(0.112155 -0.002912 0)
(0.113064 -0.00302081 0)
(0.113986 -0.00312835 0)
(0.114921 -0.00323458 0)
(0.115868 -0.00333946 0)
(0.116824 -0.00344293 0)
(0.11779 -0.00354493 0)
(0.118763 -0.00364535 0)
(0.119743 -0.00374411 0)
(0.120729 -0.00384109 0)
(0.121719 -0.00393614 0)
(0.122712 -0.00402914 0)
(0.123707 -0.00411992 0)
(0.124703 -0.00420831 0)
(0.125699 -0.00429411 0)
(0.126694 -0.0043771 0)
(0.127687 -0.00445707 0)
(0.128677 -0.00453375 0)
(0.129663 -0.00460687 0)
(0.130644 -0.00467613 0)
(0.131618 -0.00474119 0)
(0.132586 -0.0048017 0)
(0.133545 -0.00485725 0)
(0.134495 -0.00490741 0)
(0.135435 -0.0049517 0)
(0.136364 -0.00498956 0)
(0.13728 -0.00502043 0)
(0.138183 -0.00504362 0)
(0.139072 -0.00505841 0)
(0.139945 -0.00506398 0)
(0.140803 -0.00505942 0)
(0.141642 -0.00504368 0)
(0.142463 -0.00501563 0)
(0.143265 -0.00497394 0)
(0.144046 -0.00491714 0)
(0.144805 -0.00484358 0)
(0.145542 -0.00475135 0)
(0.146255 -0.00463829 0)
(0.146943 -0.00450198 0)
(0.147607 -0.00433962 0)
(0.148244 -0.00414804 0)
(0.148856 -0.00392363 0)
(0.149442 -0.00366231 0)
(0.150001 -0.00335944 0)
(0.150537 -0.00300981 0)
(0.151049 -0.00260759 0)
(0.151542 -0.00214634 0)
(0.152018 -0.00161904 0)
(0.152484 -0.0010182 0)
(0.152948 -0.000335982 0)
(0.15342 0.000435514 0)
(0.153913 0.00130182 0)
(0.154442 0.00226801 0)
(0.155027 0.00333637 0)
(0.155692 0.00450496 0)
(0.156463 0.00576574 0)
(0.157365 0.00710262 0)
(0.158426 0.00848949 0)
(0.159664 0.00988901 0)
(0.161087 0.0112532 0)
(0.162686 0.0125275 0)
(0.10001 -0.000231157 0)
(0.100141 -0.000462028 0)
(0.100351 -0.00067154 0)
(0.10063 -0.00086671 0)
(0.100974 -0.00105065 0)
(0.101378 -0.00122544 0)
(0.101834 -0.00139273 0)
(0.102339 -0.00155383 0)
(0.102889 -0.00170975 0)
(0.10348 -0.00186128 0)
(0.104109 -0.00200906 0)
(0.104772 -0.00215359 0)
(0.105468 -0.00229529 0)
(0.106193 -0.00243449 0)
(0.106946 -0.00257146 0)
(0.107723 -0.00270642 0)
(0.108525 -0.00283954 0)
(0.109347 -0.00297094 0)
(0.11019 -0.00310072 0)
(0.111051 -0.00322893 0)
(0.111928 -0.00335563 0)
(0.112821 -0.00348081 0)
(0.113727 -0.00360447 0)
(0.114646 -0.00372658 0)
(0.115575 -0.00384709 0)
(0.116515 -0.00396593 0)
(0.117463 -0.00408301 0)
(0.118419 -0.00419824 0)
(0.119381 -0.00431149 0)
(0.120348 -0.00442264 0)
(0.121318 -0.00453153 0)
(0.122292 -0.004638 0)
(0.123268 -0.00474187 0)
(0.124244 -0.00484293 0)
(0.12522 -0.00494096 0)
(0.126195 -0.00503572 0)
(0.127167 -0.00512696 0)
(0.128136 -0.00521438 0)
(0.129101 -0.00529767 0)
(0.13006 -0.00537649 0)
(0.131013 -0.00545047 0)
(0.131959 -0.0055192 0)
(0.132896 -0.00558225 0)
(0.133825 -0.00563911 0)
(0.134743 -0.00568926 0)
(0.13565 -0.00573212 0)
(0.136545 -0.00576701 0)
(0.137427 -0.00579325 0)
(0.138295 -0.00581002 0)
(0.139149 -0.00581645 0)
(0.139986 -0.00581156 0)
(0.140808 -0.00579427 0)
(0.141611 -0.00576336 0)
(0.142397 -0.00571748 0)
(0.143163 -0.00565512 0)
(0.143909 -0.0055746 0)
(0.144635 -0.00547402 0)
(0.14534 -0.00535126 0)
(0.146024 -0.00520398 0)
(0.146687 -0.00502951 0)
(0.147328 -0.00482494 0)
(0.147948 -0.004587 0)
(0.148547 -0.00431208 0)
(0.149128 -0.00399626 0)
(0.149692 -0.00363526 0)
(0.150241 -0.00322452 0)
(0.150781 -0.00275926 0)
(0.151314 -0.00223461 0)
(0.151848 -0.00164577 0)
(0.152391 -0.000988266 0)
(0.152953 -0.000258118 0)
(0.153545 0.000547558 0)
(0.154179 0.00142747 0)
(0.154871 0.00237922 0)
(0.155637 0.00339675 0)
(0.156494 0.00446943 0)
(0.157456 0.00558141 0)
(0.158538 0.00671119 0)
(0.159746 0.00783195 0)
(0.16108 0.00891306 0)
(0.16253 0.00992342 0)
(0.100007 -0.000259462 0)
(0.100135 -0.000521649 0)
(0.100338 -0.000760172 0)
(0.10061 -0.000982728 0)
(0.100945 -0.00119273 0)
(0.101338 -0.00139238 0)
(0.101784 -0.0015835 0)
(0.102278 -0.00176753 0)
(0.102816 -0.00194561 0)
(0.103394 -0.00211864 0)
(0.10401 -0.00228733 0)
(0.10466 -0.00245227 0)
(0.105342 -0.00261392 0)
(0.106053 -0.00277267 0)
(0.106791 -0.00292882 0)
(0.107554 -0.00308262 0)
(0.108339 -0.00323426 0)
(0.109146 -0.00338389 0)
(0.109973 -0.00353161 0)
(0.110817 -0.0036775 0)
(0.111677 -0.00382159 0)
(0.112552 -0.0039639 0)
(0.11344 -0.00410441 0)
(0.114341 -0.0042431 0)
(0.115252 -0.00437991 0)
(0.116172 -0.00451475 0)
(0.117101 -0.00464753 0)
(0.118037 -0.00477814 0)
(0.118978 -0.00490643 0)
(0.119925 -0.00503228 0)
(0.120874 -0.00515549 0)
(0.121827 -0.00527588 0)
(0.122781 -0.00539326 0)
(0.123735 -0.00550738 0)
(0.124689 -0.005618 0)
(0.125641 -0.00572486 0)
(0.12659 -0.00582766 0)
(0.127536 -0.00592607 0)
(0.128477 -0.00601977 0)
(0.129413 -0.00610836 0)
(0.130343 -0.00619144 0)
(0.131265 -0.00626856 0)
(0.132179 -0.00633924 0)
(0.133084 -0.00640295 0)
(0.133979 -0.00645911 0)
(0.134863 -0.00650709 0)
(0.135735 -0.0065462 0)
(0.136594 -0.00657567 0)
(0.137441 -0.00659468 0)
(0.138273 -0.0066023 0)
(0.13909 -0.00659752 0)
(0.139891 -0.00657924 0)
(0.140677 -0.00654622 0)
(0.141445 -0.00649712 0)
(0.142197 -0.00643044 0)
(0.14293 -0.00634455 0)
(0.143646 -0.00623763 0)
(0.144343 -0.0061077 0)
(0.145022 -0.00595258 0)
(0.145684 -0.00576992 0)
(0.146328 -0.00555713 0)
(0.146957 -0.00531146 0)
(0.14757 -0.00502995 0)
(0.148171 -0.00470949 0)
(0.148761 -0.0043469 0)
(0.149344 -0.00393895 0)
(0.149924 -0.00348249 0)
(0.150506 -0.00297464 0)
(0.151096 -0.00241295 0)
(0.151701 -0.00179565 0)
(0.152331 -0.00112188 0)
(0.152993 -0.000391799 0)
(0.153699 0.000393172 0)
(0.154458 0.00122657 0)
(0.155281 0.00210055 0)
(0.156177 0.0030048 0)
(0.157155 0.00392594 0)
(0.158219 0.00484765 0)
(0.159372 0.00575137 0)
(0.16061 0.00661768 0)
(0.161925 0.00742857 0)
(0.100003 -0.000288632 0)
(0.100129 -0.000583262 0)
(0.100326 -0.000852084 0)
(0.100589 -0.00110331 0)
(0.100914 -0.00134066 0)
(0.101297 -0.00156647 0)
(0.101731 -0.00178266 0)
(0.102213 -0.00199084 0)
(0.102738 -0.00219227 0)
(0.103303 -0.00238794 0)
(0.103905 -0.00257866 0)
(0.10454 -0.00276507 0)
(0.105207 -0.00294771 0)
(0.105902 -0.003127 0)
(0.106624 -0.00330329 0)
(0.10737 -0.00347686 0)
(0.108138 -0.00364792 0)
(0.108928 -0.00381664 0)
(0.109736 -0.00398314 0)
(0.110561 -0.00414749 0)
(0.111403 -0.00430975 0)
(0.112258 -0.00446993 0)
(0.113127 -0.00462801 0)
(0.114007 -0.00478396 0)
(0.114897 -0.0049377 0)
(0.115797 -0.00508916 0)
(0.116704 -0.00523823 0)
(0.117618 -0.00538476 0)
(0.118537 -0.00552863 0)
(0.11946 -0.00566964 0)
(0.120387 -0.00580762 0)
(0.121316 -0.00594236 0)
(0.122246 -0.00607363 0)
(0.123176 -0.00620117 0)
(0.124106 -0.0063247 0)
(0.125033 -0.00644394 0)
(0.125958 -0.00655857 0)
(0.126879 -0.00666822 0)
(0.127795 -0.00677252 0)
(0.128705 -0.00687107 0)
(0.129609 -0.00696342 0)
(0.130506 -0.0070491 0)
(0.131395 -0.00712758 0)
(0.132274 -0.0071983 0)
(0.133144 -0.00726065 0)
(0.134003 -0.00731396 0)
(0.134851 -0.00735752 0)
(0.135687 -0.00739054 0)
(0.13651 -0.00741217 0)
(0.13732 -0.00742147 0)
(0.138115 -0.00741744 0)
(0.138897 -0.00739897 0)
(0.139663 -0.00736487 0)
(0.140415 -0.00731383 0)
(0.14115 -0.00724444 0)
(0.141871 -0.00715517 0)
(0.142575 -0.00704437 0)
(0.143265 -0.00691026 0)
(0.143939 -0.00675096 0)
(0.1446 -0.00656446 0)
(0.145247 -0.00634865 0)
(0.145882 -0.00610135 0)
(0.146508 -0.00582033 0)
(0.147125 -0.00550338 0)
(0.147738 -0.00514835 0)
(0.148349 -0.00475328 0)
(0.148962 -0.00431648 0)
(0.149582 -0.00383669 0)
(0.150214 -0.00331327 0)
(0.150865 -0.00274636 0)
(0.15154 -0.00213709 0)
(0.152247 -0.00148772 0)
(0.152993 -0.000801655 0)
(0.153786 -8.29561e-05 0)
(0.154632 0.000661063 0)
(0.155535 0.00141952 0)
(0.156498 0.00218174 0)
(0.157524 0.00293596 0)
(0.158611 0.00366971 0)
(0.159755 0.00437083 0)
(0.160948 0.00502878 0)
(0.099999 -0.000318687 0)
(0.100122 -0.000646847 0)
(0.100314 -0.000947221 0)
(0.100568 -0.00122838 0)
(0.100883 -0.00149435 0)
(0.101255 -0.00174756 0)
(0.101677 -0.00199008 0)
(0.102145 -0.00222362 0)
(0.102656 -0.00244956 0)
(0.103206 -0.00266901 0)
(0.103793 -0.00288285 0)
(0.104412 -0.0030918 0)
(0.105062 -0.00329644 0)
(0.10574 -0.00349727 0)
(0.106444 -0.00369465 0)
(0.107172 -0.00388891 0)
(0.107922 -0.00408027 0)
(0.108692 -0.00426893 0)
(0.10948 -0.00445502 0)
(0.110286 -0.00463863 0)
(0.111106 -0.0048198 0)
(0.11194 -0.00499856 0)
(0.112787 -0.00517489 0)
(0.113645 -0.00534875 0)
(0.114513 -0.00552005 0)
(0.115389 -0.00568871 0)
(0.116273 -0.0058546 0)
(0.117162 -0.00601758 0)
(0.118057 -0.00617748 0)
(0.118956 -0.00633412 0)
(0.119857 -0.00648729 0)
(0.120761 -0.00663675 0)
(0.121665 -0.00678225 0)
(0.122569 -0.00692352 0)
(0.123472 -0.00706025 0)
(0.124373 -0.00719214 0)
(0.125271 -0.00731881 0)
(0.126165 -0.00743991 0)
(0.127054 -0.00755502 0)
(0.127937 -0.00766371 0)
(0.128814 -0.0077655 0)
(0.129683 -0.0078599 0)
(0.130545 -0.00794635 0)
(0.131398 -0.00802428 0)
(0.132241 -0.00809305 0)
(0.133074 -0.00815197 0)
(0.133896 -0.00820033 0)
(0.134707 -0.00823732 0)
(0.135506 -0.00826211 0)
(0.136292 -0.00827377 0)
(0.137065 -0.00827133 0)
(0.137826 -0.00825373 0)
(0.138573 -0.00821984 0)
(0.139306 -0.00816846 0)
(0.140026 -0.0080983 0)
(0.140732 -0.008008 0)
(0.141426 -0.00789614 0)
(0.142107 -0.00776122 0)
(0.142776 -0.00760168 0)
(0.143434 -0.00741594 0)
(0.144082 -0.00720241 0)
(0.144723 -0.00695951 0)
(0.145357 -0.00668574 0)
(0.145987 -0.00637972 0)
(0.146617 -0.00604027 0)
(0.147248 -0.00566646 0)
(0.147885 -0.00525779 0)
(0.148532 -0.0048142 0)
(0.149192 -0.00433627 0)
(0.149871 -0.00382531 0)
(0.150573 -0.00328348 0)
(0.151303 -0.00271391 0)
(0.152065 -0.00212071 0)
(0.152865 -0.00150893 0)
(0.153706 -0.000884352 0)
(0.154591 -0.000252546 0)
(0.155522 0.00037829 0)
(0.156497 0.000999012 0)
(0.157513 0.00159963 0)
(0.158568 0.00217255 0)
(0.159654 0.00271162 0)
(0.0999947 -0.00034963 0)
(0.100116 -0.000712366 0)
(0.100301 -0.0010455 0)
(0.100547 -0.00135781 0)
(0.100851 -0.00165363 0)
(0.101211 -0.00193549 0)
(0.10162 -0.00220553 0)
(0.102074 -0.00246561 0)
(0.102571 -0.00271723 0)
(0.103105 -0.00296157 0)
(0.103675 -0.00319961 0)
(0.104277 -0.00343213 0)
(0.104909 -0.00365979 0)
(0.105568 -0.00388312 0)
(0.106253 -0.00410252 0)
(0.106961 -0.00431836 0)
(0.10769 -0.00453088 0)
(0.108439 -0.0047403 0)
(0.109206 -0.00494677 0)
(0.109989 -0.00515038 0)
(0.110787 -0.00535119 0)
(0.111598 -0.00554921 0)
(0.112421 -0.00574443 0)
(0.113255 -0.0059368 0)
(0.114098 -0.00612623 0)
(0.114949 -0.00631263 0)
(0.115807 -0.00649585 0)
(0.116671 -0.00667574 0)
(0.117539 -0.00685212 0)
(0.118411 -0.00702478 0)
(0.119285 -0.00719349 0)
(0.120161 -0.00735801 0)
(0.121038 -0.00751805 0)
(0.121914 -0.00767333 0)
(0.122788 -0.00782351 0)
(0.12366 -0.00796825 0)
(0.124529 -0.00810719 0)
(0.125394 -0.00823992 0)
(0.126254 -0.00836601 0)
(0.127109 -0.00848501 0)
(0.127957 -0.00859642 0)
(0.128798 -0.00869973 0)
(0.129631 -0.00879437 0)
(0.130455 -0.00887976 0)
(0.13127 -0.00895524 0)
(0.132076 -0.00902015 0)
(0.132871 -0.00907375 0)
(0.133656 -0.00911528 0)
(0.134429 -0.00914392 0)
(0.135191 -0.0091588 0)
(0.135941 -0.009159 0)
(0.13668 -0.00914355 0)
(0.137407 -0.00911143 0)
(0.138121 -0.00906157 0)
(0.138825 -0.00899286 0)
(0.139516 -0.00890416 0)
(0.140198 -0.00879429 0)
(0.140869 -0.00866208 0)
(0.141531 -0.00850635 0)
(0.142184 -0.00832595 0)
(0.142832 -0.0081198 0)
(0.143474 -0.00788691 0)
(0.144113 -0.00762643 0)
(0.144751 -0.0073377 0)
(0.14539 -0.00702031 0)
(0.146034 -0.00667418 0)
(0.146685 -0.00629962 0)
(0.147347 -0.00589737 0)
(0.148022 -0.00546874 0)
(0.148713 -0.00501563 0)
(0.149426 -0.00454058 0)
(0.150161 -0.00404681 0)
(0.150922 -0.00353822 0)
(0.151712 -0.00301935 0)
(0.152532 -0.00249531 0)
(0.153383 -0.00197156 0)
(0.154265 -0.00145366 0)
(0.155179 -0.000946858 0)
(0.156121 -0.000455437 0)
(0.15709 1.51015e-05 0)
(0.158078 0.000460698 0)
(0.0999901 -0.00038145 0)
(0.100109 -0.000779762 0)
(0.100289 -0.0011468 0)
(0.100525 -0.00149145 0)
(0.100819 -0.0018183 0)
(0.101166 -0.00212997 0)
(0.101561 -0.00242872 0)
(0.102001 -0.00271649 0)
(0.102481 -0.00299489 0)
(0.102998 -0.0032652 0)
(0.10355 -0.00352848 0)
(0.104134 -0.00378559 0)
(0.104746 -0.00403724 0)
(0.105386 -0.00428399 0)
(0.10605 -0.00452631 0)
(0.106736 -0.00476458 0)
(0.107444 -0.00499909 0)
(0.10817 -0.00523005 0)
(0.108913 -0.00545764 0)
(0.109672 -0.00568196 0)
(0.110445 -0.00590307 0)
(0.111232 -0.00612098 0)
(0.112029 -0.00633569 0)
(0.112836 -0.00654713 0)
(0.113653 -0.00675522 0)
(0.114477 -0.00695984 0)
(0.115307 -0.00716085 0)
(0.116143 -0.00735807 0)
(0.116983 -0.0075513 0)
(0.117826 -0.00774033 0)
(0.118671 -0.0079249 0)
(0.119517 -0.00810476 0)
(0.120364 -0.0082796 0)
(0.12121 -0.00844911 0)
(0.122054 -0.00861294 0)