/*--------------------------------*- C++ -*----------------------------------*\
| =========                 |                                                 |
| \\      /  F ield         | OpenFOAM: The Open Source CFD Toolbox           |
|  \\    /   O peration     | Version:  2106                                  |
|   \\  /    A nd           | Website:  www.openfoam.com                      |
|    \\/     M anipulation  |                                                 |
\*---------------------------------------------------------------------------*/
FoamFile
{
    version     2.0;
    format      ascii;
    arch        "LSB;label=32;scalar=64";
    class       surfaceScalarField;
    location    "8.6";
    object      phi;
}
// * * * * * * * * * * * * * * * * * * * * * * * * * * * * * * * * * * * * * //

dimensions      [1 0 -1 0 0 0 0];

oriented        oriented;

internalField   nonuniform List<scalar> 
23692
(
9.3188e-05
-1.0856e-07
9.33846e-05
-1.9664e-07
9.36598e-05
-2.75181e-07
9.40043e-05
-3.44406e-07
9.44107e-05
-4.06455e-07
9.48734e-05
-4.62618e-07
9.53872e-05
-5.13761e-07
9.59478e-05
-5.6057e-07
9.65514e-05
-6.03576e-07
9.71947e-05
-6.43206e-07
9.78745e-05
-6.79808e-07
9.85883e-05
-7.1367e-07
9.93333e-05
-7.45036e-07
0.000100108
-7.74106e-07
0.000100909
-8.01057e-07
0.000101735
-8.26034e-07
0.000102584
-8.4917e-07
0.000103455
-8.70572e-07
0.000104345
-8.90337e-07
0.000105254
-9.08548e-07
0.000106179
-9.2528e-07
0.00010712
-9.40596e-07
0.000108074
-9.54554e-07
0.000109042
-9.67202e-07
0.00011002
-9.78585e-07
0.000111009
-9.88741e-07
0.000112007
-9.97705e-07
0.000113012
-1.00551e-06
0.000114025
-1.01217e-06
0.000115043
-1.01773e-06
0.000116065
-1.02219e-06
0.00011709
-1.02557e-06
0.000118118
-1.0279e-06
0.000119148
-1.02917e-06
0.000120177
-1.02939e-06
0.000121206
-1.02858e-06
0.000122233
-1.02674e-06
0.000123256
-1.02386e-06
0.000124276
-1.01994e-06
0.000125291
-1.01497e-06
0.0001263
-1.00894e-06
0.000127302
-1.00184e-06
0.000128296
-9.93642e-07
0.00012928
-9.84323e-07
0.000130254
-9.7385e-07
0.000131217
-9.62185e-07
0.000132166
-9.49281e-07
0.000133101
-9.35082e-07
0.000134021
-9.19521e-07
0.000134923
-9.02519e-07
0.000135807
-8.83982e-07
0.000136671
-8.63803e-07
0.000137513
-8.41846e-07
0.000138331
-8.1796e-07
0.000139123
-7.91957e-07
0.000139886
-7.63619e-07
0.000140619
-7.32681e-07
0.000141318
-6.98827e-07
0.00014198
-6.61669e-07
0.0001426
-6.20741e-07
0.000143176
-5.75468e-07
0.000143701
-5.25137e-07
0.00014417
-4.6886e-07
0.000144575
-4.05517e-07
0.000144909
-3.33677e-07
0.000145161
-2.51495e-07
0.000145317
-1.56552e-07
0.000145363
-4.56431e-08
0.000145277
8.56037e-08
0.000145034
2.43306e-07
0.000144598
4.36162e-07
0.000143921
6.76831e-07
0.000142936
9.84264e-07
0.000141549
1.38766e-06
0.000139615
1.93341e-06
0.000136918
2.69735e-06
0.000133111
3.80658e-06
0.000127631
5.48044e-06
0.000119505
8.12596e-06
0.000106919
1.25854e-05
2.12994e-05
8.56201e-05
9.97122e-05
-2.21845e-07
9.99215e-05
-4.0587e-07
0.000100215
-5.68695e-07
0.000100583
-7.1196e-07
0.000101017
-8.40416e-07
0.000101511
-9.5668e-07
0.000102059
-1.06253e-06
0.000102658
-1.15941e-06
0.000103303
-1.24841e-06
0.00010399
-1.33042e-06
0.000104717
-1.40616e-06
0.00010548
-1.47622e-06
0.000106276
-1.54112e-06
0.000107103
-1.60126e-06
0.000107959
-1.65701e-06
0.000108842
-1.70868e-06
0.000109749
-1.75654e-06
0.000110679
-1.8008e-06
0.000111631
-1.84167e-06
0.000112602
-1.87933e-06
0.00011359
-1.91392e-06
0.000114595
-1.94559e-06
0.000115615
-1.97443e-06
0.000116649
-2.00057e-06
0.000117694
-2.02409e-06
0.000118751
-2.04507e-06
0.000119817
-2.06358e-06
0.000120891
-2.07968e-06
0.000121972
-2.09343e-06
0.00012306
-2.10488e-06
0.000124152
-2.11406e-06
0.000125247
-2.12102e-06
0.000126345
-2.12578e-06
0.000127444
-2.12836e-06
0.000128544
-2.12878e-06
0.000129642
-2.12706e-06
0.000130739
-2.12319e-06
0.000131832
-2.11717e-06
0.000132921
-2.10901e-06
0.000134005
-2.09868e-06
0.000135082
-2.08615e-06
0.000136152
-2.07141e-06
0.000137213
-2.05439e-06
0.000138264
-2.03507e-06
0.000139303
-2.01335e-06
0.00014033
-1.98917e-06
0.000141343
-1.96244e-06
0.000142341
-1.93303e-06
0.000143323
-1.90081e-06
0.000144286
-1.86561e-06
0.000145229
-1.82726e-06
0.000146151
-1.78552e-06
0.000147049
-1.74013e-06
0.000147922
-1.69076e-06
0.000148767
-1.63705e-06
0.000149582
-1.57855e-06
0.000150364
-1.51472e-06
0.00015111
-1.44491e-06
0.000151817
-1.36835e-06
0.00015248
-1.2841e-06
0.000153096
-1.19101e-06
0.000153658
-1.08763e-06
0.000154162
-9.72208e-07
0.000154599
-8.42505e-07
0.000154961
-6.95698e-07
0.000155237
-5.28155e-07
0.000155416
-3.35156e-07
0.000155481
-1.10487e-07
0.000155412
1.54177e-07
0.000155185
4.70302e-07
0.000154767
8.53915e-07
0.000154116
1.32781e-06
0.000153176
1.9251e-06
0.000151868
2.69488e-06
0.00015009
3.71136e-06
0.000147699
5.08825e-06
0.000144506
6.99986e-06
0.000140277
9.70982e-06
0.000134792
1.36105e-05
0.000128185
1.91929e-05
2.63112e-05
0.000123173
0.000106692
-3.39172e-07
0.000106914
-6.27415e-07
0.000107226
-8.80331e-07
0.000107617
-1.103e-06
0.000108079
-1.30256e-06
0.000108605
-1.48314e-06
0.00010919
-1.64753e-06
0.000109829
-1.79794e-06
0.000110517
-1.93611e-06
0.00011125
-2.06342e-06
0.000112025
-2.18098e-06
0.000112838
-2.28972e-06
0.000113688
-2.39042e-06
0.00011457
-2.48374e-06
0.000115483
-2.57024e-06
0.000116425
-2.65039e-06
0.000117393
-2.72461e-06
0.000118386
-2.79326e-06
0.000119401
-2.85663e-06
0.000120437
-2.91501e-06
0.000121492
-2.96863e-06
0.000122564
-3.01769e-06
0.000123652
-3.06238e-06
0.000124754
-3.10285e-06
0.000125869
-3.13926e-06
0.000126996
-3.17172e-06
0.000128133
-3.20034e-06
0.000129279
-3.22522e-06
0.000130432
-3.24645e-06
0.000131591
-3.2641e-06
0.000132755
-3.27824e-06
0.000133923
-3.28891e-06
0.000135094
-3.29617e-06
0.000136265
-3.30004e-06
0.000137437
-3.30056e-06
0.000138608
-3.29775e-06
0.000139777
-3.29161e-06
0.000140942
-3.28214e-06
0.000142102
-3.26933e-06
0.000143257
-3.25315e-06
0.000144404
-3.23358e-06
0.000145543
-3.21056e-06
0.000146673
-3.18402e-06
0.000147792
-3.1539e-06
0.000148899
-3.12008e-06
0.000149992
-3.08244e-06
0.00015107
-3.04085e-06
0.000152133
-2.99512e-06
0.000153177
-2.94505e-06
0.000154202
-2.8904e-06
0.000155205
-2.83087e-06
0.000156186
-2.76611e-06
0.000157142
-2.69574e-06
0.00015807
-2.61927e-06
0.000158969
-2.53612e-06
0.000159836
-2.44564e-06
0.000160669
-2.34701e-06
0.000161463
-2.23926e-06
0.000162216
-2.12125e-06
0.000162923
-1.99156e-06
0.000163581
-1.84848e-06
0.000164183
-1.68991e-06
0.000164724
-1.51325e-06
0.000165197
-1.31525e-06
0.000165593
-1.09185e-06
0.000165903
-8.37847e-07
0.000166114
-5.4657e-07
0.000166213
-2.0936e-07
0.000166182
1.8514e-07
0.000166
6.52146e-07
0.000165642
1.21239e-06
0.000165075
1.89433e-06
0.000164263
2.73756e-06
0.00016316
3.79754e-06
0.000161719
5.15238e-06
0.000159896
6.91118e-06
0.000157674
9.22201e-06
0.000155112
1.22715e-05
0.000152469
1.62532e-05
0.000150461
2.12011e-05
2.63921e-05
0.00015038
0.000114161
-4.60248e-07
0.000114394
-8.60707e-07
0.000114724
-1.20989e-06
0.000115138
-1.51766e-06
0.000115629
-1.79339e-06
0.000116189
-2.04279e-06
0.000116811
-2.26977e-06
0.000117491
-2.47743e-06
0.000118223
-2.66815e-06
0.000119003
-2.84385e-06
0.000119828
-3.00606e-06
0.000120695
-3.15609e-06
0.0001216
-3.295e-06
0.00012254
-3.4237e-06
0.000123512
-3.54298e-06
0.000124516
-3.65348e-06
0.000125547
-3.75579e-06
0.000126604
-3.85038e-06
0.000127685
-3.9377e-06
0.000128788
-4.01811e-06
0.000129912
-4.09194e-06
0.000131054
-4.15947e-06
0.000132212
-4.22096e-06
0.000133386
-4.27663e-06
0.000134574
-4.32667e-06
0.000135773
-4.37126e-06
0.000136984
-4.41054e-06
0.000138203
-4.44466e-06
0.000139431
-4.47373e-06
0.000140664
-4.49785e-06
0.000141903
-4.51712e-06
0.000143146
-4.5316e-06
0.000144391
-4.54136e-06
0.000145638
-4.54646e-06
0.000146884
-4.54692e-06
0.00014813
-4.54278e-06
0.000149372
-4.53404e-06
0.000150611
-4.52071e-06
0.000151844
-4.50277e-06
0.000153071
-4.48019e-06
0.000154291
-4.45293e-06
0.000155501
-4.42091e-06
0.000156701
-4.38405e-06
0.00015789
-4.34225e-06
0.000159065
-4.29537e-06
0.000160226
-4.24325e-06
0.000161371
-4.18569e-06
0.000162498
-4.12246e-06
0.000163606
-4.05327e-06
0.000164694
-3.97781e-06
0.000165759
-3.89569e-06
0.000166799
-3.80644e-06
0.000167813
-3.70954e-06
0.000168798
-3.60434e-06
0.000169752
-3.4901e-06
0.000170672
-3.36591e-06
0.000171556
-3.23074e-06
0.0001724
-3.08331e-06
0.000173201
-2.92211e-06
0.000173955
-2.74532e-06
0.000174657
-2.55073e-06
0.000175303
-2.33566e-06
0.000175886
-2.09681e-06
0.000176401
-1.83011e-06
0.00017684
-1.5305e-06
0.000177194
-1.19164e-06
0.000177452
-8.05495e-07
0.000177605
-3.6185e-07
0.000177638
1.52327e-07
0.000177536
7.53912e-07
0.000177283
1.46495e-06
0.000176863
2.31452e-06
0.00017626
3.34076e-06
0.000175464
4.59348e-06
0.00017448
6.13676e-06
0.00017334
8.05032e-06
0.000172137
1.04259e-05
0.000171057
1.33509e-05
0.000170451
1.68595e-05
0.000170844
2.08077e-05
2.46049e-05
0.000172631
0.000122152
-5.84931e-07
0.000122396
-1.10528e-06
0.000122744
-1.55712e-06
0.000123182
-1.95596e-06
0.000123702
-2.31319e-06
0.000124295
-2.6362e-06
0.000124956
-2.93012e-06
0.000125677
-3.19895e-06
0.000126455
-3.4458e-06
0.000127284
-3.67314e-06
0.000128161
-3.88301e-06
0.000129082
-4.07706e-06
0.000130044
-4.2567e-06
0.000131044
-4.42311e-06
0.000132078
-4.57729e-06
0.000133145
-4.72009e-06
0.000134241
-4.85226e-06
0.000135365
-4.97444e-06
0.000136515
-5.08718e-06
0.000137688
-5.19097e-06
0.000138882
-5.28622e-06
0.000140096
-5.37331e-06
0.000141328
-5.45257e-06
0.000142576
-5.52427e-06
0.000143838
-5.58869e-06
0.000145113
-5.64604e-06
0.000146399
-5.69651e-06
0.000147695
-5.74029e-06
0.000148999
-5.77752e-06
0.000150309
-5.80834e-06
0.000151625
-5.83287e-06
0.000152945
-5.8512e-06
0.000154267
-5.86342e-06
0.00015559
-5.86959e-06
0.000156913
-5.86976e-06
0.000158234
-5.86398e-06
0.000159553
-5.85225e-06
0.000160866
-5.83457e-06
0.000162175
-5.81094e-06
0.000163476
-5.7813e-06
0.000164769
-5.74562e-06
0.000166052
-5.7038e-06
0.000167323
-5.65574e-06
0.000168583
-5.6013e-06
0.000169828
-5.54033e-06
0.000171057
-5.47261e-06
0.000172269
-5.3979e-06
0.000173463
-5.31592e-06
0.000174636
-5.22631e-06
0.000175787
-5.12868e-06
0.000176914
-5.02253e-06
0.000178014
-4.90733e-06
0.000179087
-4.78238e-06
0.00018013
-4.64693e-06
0.00018114
-4.50005e-06
0.000182115
-4.34066e-06
0.000183051
-4.16748e-06
0.000183947
-3.979e-06
0.000184798
-3.77339e-06
0.000185602
-3.54851e-06
0.000186353
-3.30175e-06
0.000187047
-3.03e-06
0.00018768
-2.72945e-06
0.000188245
-2.39551e-06
0.000188737
-2.0225e-06
0.000189149
-1.60348e-06
0.000189473
-1.12983e-06
0.000189702
-5.90885e-07
0.000189828
2.64805e-08
0.000189843
7.38796e-07
0.000189742
1.56601e-06
0.000189523
2.53358e-06
0.000189191
3.67248e-06
0.000188765
5.01971e-06
0.000188284
6.61774e-06
0.000187823
8.51153e-06
0.000187508
1.07406e-05
0.000187538
1.33212e-05
0.000188186
1.62108e-05
0.000189751
1.92432e-05
2.20333e-05
0.000192323
0.000130702
-7.13229e-07
0.000130958
-1.36077e-06
0.000131323
-1.92177e-06
0.000131784
-2.41779e-06
0.000132333
-2.86213e-06
0.000132961
-3.2638e-06
0.00013366
-3.62922e-06
0.000134425
-3.96336e-06
0.000135249
-4.27011e-06
0.000136128
-4.55255e-06
0.000137059
-4.81322e-06
0.000138036
-5.05418e-06
0.000139056
-5.27719e-06
0.000140117
-5.48372e-06
0.000141215
-5.67501e-06
0.000142347
-5.85214e-06
0.000143511
-6.01602e-06
0.000144704
-6.16746e-06
0.000145924
-6.30715e-06
0.000147169
-6.43568e-06
0.000148436
-6.55359e-06
0.000149725
-6.66134e-06
0.000151032
-6.75933e-06
0.000152355
-6.84792e-06
0.000153694
-6.92743e-06
0.000155046
-6.99815e-06
0.00015641
-7.0603e-06
0.000157784
-7.11413e-06
0.000159167
-7.1598e-06
0.000160556
-7.1975e-06
0.00016195
-7.22737e-06
0.000163349
-7.24953e-06
0.00016475
-7.26409e-06
0.000166151
-7.27113e-06
0.000167552
-7.27071e-06
0.000168951
-7.26289e-06
0.000170347
-7.24768e-06
0.000171738
-7.2251e-06
0.000173122
-7.19512e-06
0.000174498
-7.15771e-06
0.000175866
-7.11279e-06
0.000177222
-7.06028e-06
0.000178566
-7.00006e-06
0.000179897
-6.93195e-06
0.000181213
-6.85578e-06
0.000182511
-6.7713e-06
0.000183792
-6.67822e-06
0.000185052
-6.57621e-06
0.000186291
-6.46485e-06
0.000187506
-6.34369e-06
0.000188696
-6.21214e-06
0.000189858
-6.06957e-06
0.000190991
-5.9152e-06
0.000192092
-5.74814e-06
0.000193159
-5.56733e-06
0.00019419
-5.37152e-06
0.000195182
-5.15928e-06
0.000196132
-4.92889e-06
0.000197037
-4.67833e-06
0.000197893
-4.40522e-06
0.000198698
-4.10671e-06
0.000199448
-3.77944e-06
0.000200138
-3.41938e-06
0.000200764
-3.02172e-06
0.000201322
-2.58068e-06
0.000201808
-2.08931e-06
0.000202217
-1.53929e-06
0.000202547
-9.20582e-07
0.000202795
-2.21272e-07
0.000202961
5.72695e-07
0.00020305
1.4773e-06
0.000203072
2.51149e-06
0.000203048
3.69641e-06
0.000203013
5.05446e-06
0.000203024
6.60712e-06
0.000203164
8.37093e-06
0.000203555
1.03501e-05
0.000204352
1.2524e-05
0.000205734
1.48284e-05
0.000207849
1.71287e-05
1.9197e-05
0.000210685
0.000139851
-8.45237e-07
0.000140118
-1.62691e-06
0.000140499
-2.30361e-06
0.000140985
-2.90301e-06
0.000141563
-3.44023e-06
0.000142225
-3.92582e-06
0.000142963
-4.36751e-06
0.000143771
-4.77132e-06
0.000144643
-5.14193e-06
0.000145574
-5.48308e-06
0.000146558
-5.79784e-06
0.000147593
-6.08873e-06
0.000148674
-6.35787e-06
0.000149797
-6.60703e-06
0.00015096
-6.83774e-06
0.000152159
-7.05129e-06
0.000153392
-7.24879e-06
0.000154656
-7.43122e-06
0.000155948
-7.59941e-06
0.000157267
-7.75409e-06
0.000158609
-7.8959e-06
0.000159974
-8.02541e-06
0.000161357
-8.1431e-06
0.000162759
-8.24941e-06
0.000164176
-8.34472e-06
0.000165608
-8.42938e-06
0.000167051
-8.50368e-06
0.000168505
-8.56789e-06
0.000169968
-8.62225e-06
0.000171437
-8.66695e-06
0.000172912
-8.70218e-06
0.000174391
-8.72809e-06
0.000175872
-8.7448e-06
0.000177353
-8.75242e-06
0.000178834
-8.75104e-06
0.000180312
-8.74072e-06
0.000181785
-8.72148e-06
0.000183254
-8.69334e-06
0.000184715
-8.65629e-06
0.000186168
-8.61029e-06
0.00018761
-8.55526e-06
0.000189041
-8.49111e-06
0.000190459
-8.41769e-06
0.000191862
-8.33483e-06
0.000193248
-8.24232e-06
0.000194617
-8.13988e-06
0.000195966
-8.02719e-06
0.000197294
-7.90388e-06
0.000198598
-7.76948e-06
0.000199878
-7.62348e-06
0.000201131
-7.46524e-06
0.000202356
-7.29405e-06
0.00020355
-7.10906e-06
0.000204711
-6.90927e-06
0.000205837
-6.69355e-06
0.000206926
-6.46055e-06
0.000207976
-6.20872e-06
0.000208983
-5.93625e-06
0.000209946
-5.64101e-06
0.000210861
-5.32052e-06
0.000211726
-4.9719e-06
0.000212539
-4.59175e-06
0.000213295
-4.17611e-06
0.000213994
-3.72036e-06
0.000214632
-3.21906e-06
0.000215209
-2.6659e-06
0.000215723
-2.05357e-06
0.000216176
-1.37365e-06
0.000216572
-6.16539e-07
0.000216916
2.28431e-07
0.000217221
1.17226e-06
0.000217506
2.22638e-06
0.0002178
3.40226e-06
0.000218145
4.70952e-06
0.000218598
6.15373e-06
0.000219236
7.73298e-06
0.000220153
9.43302e-06
0.000221457
1.12207e-05
0.000223249
1.30361e-05
0.000225593
1.4785e-05
1.63395e-05
0.00022845
0.000149641
-9.81131e-07
0.000149918
-1.90354e-06
0.000150317
-2.70248e-06
0.000150825
-3.41147e-06
0.000151432
-4.04743e-06
0.000152129
-4.62236e-06
0.000152907
-5.14528e-06
0.000153759
-5.62326e-06
0.000154679
-6.06185e-06
0.000155661
-6.46549e-06
0.000156701
-6.83778e-06
0.000157794
-7.18174e-06
0.000158937
-7.49986e-06
0.000160124
-7.79427e-06
0.000161353
-8.06677e-06
0.000162621
-8.3189e-06
0.000163924
-8.55198e-06
0.00016526
-8.76716e-06
0.000166626
-8.96545e-06
0.00016802
-9.1477e-06
0.000169439
-9.31467e-06
0.000170881
-9.46703e-06
0.000172343
-9.60537e-06
0.000173824
-9.73021e-06
0.000175321
-9.84201e-06
0.000176833
-9.94116e-06
0.000178358
-1.0028e-05
0.000179893
-1.01029e-05
0.000181437
-1.01661e-05
0.000182988
-1.02179e-05
0.000184544
-1.02585e-05
0.000186104
-1.0288e-05
0.000187666
-1.03066e-05
0.000189228
-1.03144e-05
0.000190789
-1.03116e-05
0.000192347
-1.02983e-05
0.0001939
-1.02744e-05
0.000195447
-1.024e-05
0.000196985
-1.01951e-05
0.000198515
-1.01396e-05
0.000200033
-1.00735e-05
0.000201539
-9.9967e-06
0.00020303
-9.90903e-06
0.000204506
-9.81029e-06
0.000205964
-9.70027e-06
0.000207403
-9.57867e-06
0.000208821
-9.44516e-06
0.000210216
-9.29932e-06
0.000211588
-9.14066e-06
0.000212933
-8.96864e-06
0.00021425
-8.78257e-06
0.000215538
-8.58171e-06
0.000216794
-8.36516e-06
0.000218017
-8.13189e-06
0.000219204
-7.88072e-06
0.000220354
-7.61027e-06
0.000221464
-7.31896e-06
0.000222533
-7.00499e-06
0.000223558
-6.66625e-06
0.000224538
-6.30035e-06
0.00022547
-5.90451e-06
0.000226354
-5.47559e-06
0.000227188
-5.00997e-06
0.000227971
-4.50356e-06
0.000228704
-3.95173e-06
0.000229387
-3.34928e-06
0.000230024
-2.69048e-06
0.00023062
-1.96908e-06
0.000231181
-1.17846e-06
0.000231722
-3.11704e-07
0.000232256
6.37599e-07
0.000232809
1.67404e-06
0.00023341
2.80102e-06
0.0002341
4.01897e-06
0.00023493
5.32355e-06
0.00023596
6.70346e-06
0.000237255
8.13799e-06
0.000238881
9.59438e-06
0.000240891
1.10258e-05
0.000243305
1.23712e-05
1.35602e-05
0.000246085
0.000160116
-1.12112e-06
0.000160403
-2.19056e-06
0.000160819
-3.11824e-06
0.000161351
-3.94299e-06
0.000161987
-4.68362e-06
0.000162718
-5.35339e-06
0.000163535
-5.96261e-06
0.000164432
-6.51943e-06
0.0001654
-7.03026e-06
0.000166435
-7.50026e-06
0.000167531
-7.93365e-06
0.000168683
-8.33391e-06
0.000169887
-8.70398e-06
0.00017114
-9.04633e-06
0.000172436
-9.36307e-06
0.000173773
-9.65599e-06
0.000175148
-9.92666e-06
0.000176557
-1.01764e-05
0.000177998
-1.04064e-05
0.000179469
-1.06176e-05
0.000180965
-1.0811e-05
0.000182485
-1.09873e-05
0.000184027
-1.11473e-05
0.000185589
-1.12914e-05
0.000187167
-1.14203e-05
0.000188761
-1.15345e-05
0.000190367
-1.16343e-05
0.000191985
-1.17202e-05
0.000193611
-1.17924e-05
0.000195244
-1.18512e-05
0.000196883
-1.1897e-05
0.000198525
-1.19299e-05
0.000200169
-1.19501e-05
0.000201812
-1.19577e-05
0.000203454
-1.1953e-05
0.000205091
-1.1936e-05
0.000206724
-1.19067e-05
0.000208349
-1.18653e-05
0.000209966
-1.18116e-05
0.000211572
-1.17458e-05
0.000213166
-1.16677e-05
0.000214747
-1.15771e-05
0.000216312
-1.14741e-05
0.00021786
-1.13584e-05
0.00021939
-1.12297e-05
0.000220899
-1.10878e-05
0.000222386
-1.09323e-05
0.00022385
-1.07628e-05
0.000225288
-1.05788e-05
0.000226699
-1.03797e-05
0.000228081
-1.01649e-05
0.000229433
-9.93363e-06
0.000230753
-9.68493e-06
0.000232039
-9.41784e-06
0.00023329
-9.13117e-06
0.000234503
-8.82362e-06
0.000235678
-8.49366e-06
0.000236812
-8.1396e-06
0.000237906
-7.75951e-06
0.000238957
-7.35121e-06
0.000239964
-6.91227e-06
0.000240929
-6.43998e-06
0.00024185
-5.93134e-06
0.00024273
-5.38307e-06
0.00024357
-4.79164e-06
0.000244374
-4.15329e-06
0.000245147
-3.46415e-06
0.000245899
-2.72036e-06
0.000246638
-1.91828e-06
0.000247381
-1.05473e-06
0.000248146
-1.27158e-07
0.000248955
8.64785e-07
0.000249838
1.9183e-06
0.000250829
3.02829e-06
0.000251967
4.18552e-06
0.000253294
5.37566e-06
0.000254854
6.57826e-06
0.000256682
7.76625e-06
0.000258802
8.90623e-06
0.000261213
9.9602e-06
1.08898e-05
0.000263883
0.000171325
-1.26541e-06
0.000171623
-2.48792e-06
0.000172055
-3.55078e-06
0.00017261
-4.49741e-06
0.000173275
-5.34862e-06
0.00017404
-6.11879e-06
0.000174897
-6.81945e-06
0.000175837
-7.45984e-06
0.000176854
-8.04727e-06
0.000177942
-8.58762e-06
0.000179094
-9.08574e-06
0.000180306
-9.54564e-06
0.000181573
-9.97069e-06
0.00018289
-1.03637e-05
0.000184255
-1.07272e-05
0.000185662
-1.10632e-05
0.000187109
-1.13735e-05
0.000188592
-1.16596e-05
0.000190109
-1.19229e-05
0.000191656
-1.21646e-05
0.000193231
-1.23856e-05
0.000194831
-1.2587e-05
0.000196453
-1.27694e-05
0.000198095
-1.29337e-05
0.000199755
-1.30803e-05
0.000201431
-1.321e-05
0.00020312
-1.3323e-05
0.00020482
-1.342e-05
0.000206529
-1.35013e-05
0.000208245
-1.35672e-05
0.000209966
-1.3618e-05
0.00021169
-1.36539e-05
0.000213416
-1.36753e-05
0.00021514
-1.36823e-05
0.000216863
-1.36751e-05
0.000218581
-1.36537e-05
0.000220292
-1.36184e-05
0.000221996
-1.3569e-05
0.000223691
-1.35058e-05
0.000225373
-1.34286e-05
0.000227043
-1.33374e-05
0.000228698
-1.32321e-05
0.000230337
-1.31127e-05
0.000231958
-1.29788e-05
0.000233558
-1.28304e-05
0.000235138
-1.26671e-05
0.000236694
-1.24886e-05
0.000238226
-1.22944e-05
0.000239731
-1.20842e-05
0.000241209
-1.18573e-05
0.000242657
-1.16131e-05
0.000244075
-1.1351e-05
0.00024546
-1.107e-05
0.000246811
-1.07692e-05
0.000248128
-1.04476e-05
0.000249408
-1.01039e-05
0.000250651
-9.73685e-06
0.000251856
-9.34494e-06
0.000253023
-8.92654e-06
0.000254152
-8.47984e-06
0.000255243
-8.00289e-06
0.000256296
-7.49362e-06
0.000257315
-6.94981e-06
0.000258301
-6.36917e-06
0.000259259
-5.74943e-06
0.000260194
-5.08835e-06
0.000261114
-4.38393e-06
0.000262028
-3.63454e-06
0.000262949
-2.83914e-06
0.000263891
-1.99757e-06
0.000264875
-1.11072e-06
0.00026592
-1.80572e-07
0.000267051
7.87733e-07
0.000268293
1.786e-06
0.000269675
2.80322e-06
0.000271225
3.82564e-06
0.000272968
4.836e-06
0.00027492
5.81399e-06
0.000277089
6.73708e-06
0.000279467
7.58216e-06
8.32848e-06
0.000282028
0.000183319
-1.41419e-06
0.000183626
-2.7956e-06
0.000184076
-3.99998e-06
0.000184653
-5.07454e-06
0.000185346
-6.04217e-06
0.000186146
-6.91829e-06
0.000187042
-7.71557e-06
0.000188027
-8.44431e-06
0.000189092
-9.11274e-06
0.000190232
-9.7275e-06
0.000191441
-1.02941e-05
0.000192712
-1.0817e-05
0.000194042
-1.13001e-05
0.000195425
-1.17466e-05
0.000196857
-1.21594e-05
0.000198334
-1.25407e-05
0.000199854
-1.28926e-05
0.000201411
-1.3217e-05
0.000203004
-1.35152e-05
0.000204628
-1.37887e-05
0.000206281
-1.40387e-05
0.000207961
-1.42661e-05
0.000209663
-1.4472e-05
0.000211387
-1.4657e-05
0.000213129
-1.4822e-05
0.000214886
-1.49675e-05
0.000216658
-1.50941e-05
0.00021844
-1.52024e-05
0.000220232
-1.52927e-05
0.00022203
-1.53655e-05
0.000223834
-1.54211e-05
0.00022564
-1.54599e-05
0.000227446
-1.5482e-05
0.000229252
-1.54878e-05
0.000231054
-1.54774e-05
0.000232852
-1.5451e-05
0.000234642
-1.54087e-05
0.000236424
-1.53506e-05
0.000238195
-1.52768e-05
0.000239954
-1.51873e-05
0.000241699
-1.5082e-05
0.000243428
-1.4961e-05
0.000245139
-1.48241e-05
0.000246832
-1.46711e-05
0.000248503
-1.45019e-05
0.000250152
-1.43162e-05
0.000251778
-1.41138e-05
0.000253377
-1.38942e-05
0.00025495
-1.3657e-05
0.000256495
-1.34018e-05
0.00025801
-1.3128e-05
0.000259494
-1.2835e-05
0.000260946
-1.2522e-05
0.000262365
-1.21882e-05
0.00026375
-1.18327e-05
0.000265101
-1.14545e-05
0.000266417
-1.10527e-05
0.000267698
-1.06259e-05
0.000268944
-1.0173e-05
0.000270157
-9.69264e-06
0.000271338
-9.18348e-06
0.000272488
-8.64416e-06
0.000273612
-8.07335e-06
0.000274712
-7.46982e-06
0.000275795
-6.8325e-06
0.000276868
-6.16061e-06
0.000277938
-5.45379e-06
0.000279015
-4.71223e-06
0.000280113
-3.93689e-06
0.000281245
-3.12966e-06
0.000282428
-2.29359e-06
0.00028368
-1.43292e-06
0.000285021
-5.5293e-07
0.000286468
3.38517e-07
0.00028804
1.23112e-06
0.000289753
2.11259e-06
0.00029162
2.96921e-06
0.000293647
3.7868e-06
0.000295834
4.55063e-06
0.000298169
5.24688e-06
5.86449e-06
0.000300633
0.000196152
-1.56761e-06
0.00019647
-3.11354e-06
0.000196936
-4.46566e-06
0.000197535
-5.67412e-06
0.000198257
-6.76392e-06
0.00019909
-7.75149e-06
0.000200025
-8.65054e-06
0.000201053
-9.47242e-06
0.000202167
-1.02263e-05
0.000203359
-1.09195e-05
0.000204623
-1.15582e-05
0.000205954
-1.21475e-05
0.000207346
-1.26918e-05
0.000208794
-1.31947e-05
0.000210294
-1.36592e-05
0.000211842
-1.40882e-05
0.000213433
-1.44838e-05
0.000215064
-1.48482e-05
0.000216732
-1.5183e-05
0.000218434
-1.54897e-05
0.000220165
-1.57698e-05
0.000221923
-1.60244e-05
0.000223706
-1.62544e-05
0.00022551
-1.64609e-05
0.000227333
-1.66447e-05
0.000229172
-1.68065e-05
0.000231025
-1.69469e-05
0.000232889
-1.70665e-05
0.000234762
-1.71658e-05
0.000236642
-1.72454e-05
0.000238527
-1.73055e-05
0.000240414
-1.73466e-05
0.000242301
-1.7369e-05
0.000244186
-1.73729e-05
0.000246068
-1.73587e-05
0.000247943
-1.73265e-05
0.000249811
-1.72765e-05
0.00025167
-1.72088e-05
0.000253516
-1.71235e-05
0.00025535
-1.70207e-05
0.000257168
-1.69004e-05
0.00025897
-1.67626e-05
0.000260753
-1.66072e-05
0.000262516
-1.64341e-05
0.000264258
-1.62433e-05
0.000265976
-1.60345e-05
0.00026767
-1.58074e-05
0.000269338
-1.55618e-05
0.000270978
-1.52974e-05
0.00027259
-1.50137e-05
0.000274173
-1.47104e-05
0.000275725
-1.43868e-05
0.000277245
-1.40426e-05
0.000278734
-1.36769e-05
0.000280191
-1.32893e-05
0.000281615
-1.28789e-05
0.000283008
-1.24451e-05
0.000284369
-1.1987e-05
0.0002857
-1.1504e-05
0.000287002
-1.09951e-05
0.000288279
-1.04598e-05
0.000289532
-9.89747e-06
0.000290766
-9.30757e-06
0.000291986
-8.68987e-06
0.000293198
-8.04443e-06
0.000294409
-7.37164e-06
0.000295628
-6.67242e-06
0.000296864
-5.94828e-06
0.000298129
-5.20146e-06
0.000299434
-4.43506e-06
0.000300793
-3.65312e-06
0.000302221
-2.86069e-06
0.000303732
-2.06375e-06
0.00030534
-1.26906e-06
0.000307055
-4.84177e-07
0.000308886
2.81631e-07
0.000310837
1.01826e-06
0.000312908
1.71565e-06
0.000315094
2.36411e-06
0.000317386
2.95522e-06
3.48345e-06
0.000319767
0.000209884
-1.72576e-06
0.000210212
-3.44164e-06
0.000210694
-4.94755e-06
0.000211315
-6.29576e-06
0.000212065
-7.51335e-06
0.000212931
-8.61776e-06
0.000213904
-9.62367e-06
0.000214975
-1.05434e-05
0.000216136
-1.13871e-05
0.00021738
-1.21628e-05
0.000218699
-1.28774e-05
0.000220088
-1.35365e-05
0.000221542
-1.4145e-05
0.000223054
-1.4707e-05
0.000224621
-1.52259e-05
0.000226238
-1.57047e-05
0.0002279
-1.61461e-05
0.000229604
-1.65522e-05
0.000231347
-1.69251e-05
0.000233124
-1.72665e-05
0.000234932
-1.75778e-05
0.000236768
-1.78605e-05
0.000238629
-1.81156e-05
0.000240513
-1.83442e-05
0.000242415
-1.85472e-05
0.000244335
-1.87255e-05
0.000246268
-1.88798e-05
0.000248212
-1.90108e-05
0.000250166
-1.9119e-05
0.000252126
-1.92051e-05
0.00025409
-1.92694e-05
0.000256056
-1.93124e-05
0.000258021
-1.93344e-05
0.000259985
-1.93359e-05
0.000261943
-1.93172e-05
0.000263895
-1.92784e-05
0.000265839
-1.92198e-05
0.000267772
-1.91415e-05
0.000269692
-1.90439e-05
0.000271598
-1.89269e-05
0.000273489
-1.87906e-05
0.000275362
-1.86351e-05
0.000277215
-1.84605e-05
0.000279048
-1.82666e-05
0.000280858
-1.80534e-05
0.000282644
-1.78208e-05
0.000284405
-1.75687e-05
0.000286141
-1.72968e-05
0.000287848
-1.70051e-05
0.000289528
-1.66931e-05
0.000291178
-1.63607e-05
0.000292799
-1.60076e-05
0.00029439
-1.56333e-05
0.00029595
-1.52375e-05
0.000297481
-1.48198e-05
0.000298982
-1.438e-05
0.000300455
-1.39175e-05
0.0003019
-1.34321e-05
0.000303319
-1.29234e-05
0.000304715
-1.23914e-05
0.000306091
-1.18359e-05
0.000307451
-1.12571e-05
0.000308799
-1.06552e-05
0.00031014
-1.00308e-05
0.00031148
-9.38478e-06
0.000312827
-8.71853e-06
0.000314188
-8.03378e-06
0.000315573
-7.33284e-06
0.00031699
-6.61863e-06
0.00031845
-5.89471e-06
0.000319962
-5.16531e-06
0.000321536
-4.43537e-06
0.000323183
-3.7104e-06
0.00032491
-2.99644e-06
0.000326726
-2.2999e-06
0.000328635
-1.62707e-06
0.000330637
-9.84047e-07
0.00033273
-3.77285e-07
0.000334907
1.873e-07
0.000337157
7.0466e-07
1.17178e-06
0.000339469
0.000224576
-1.88863e-06
0.000224915
-3.77974e-06
0.000225412
-5.44523e-06
0.000226055
-6.93886e-06
0.000226832
-8.28973e-06
0.00022773
-9.51623e-06
0.000228741
-1.0634e-05
0.000229854
-1.16562e-05
0.000231061
-1.2594e-05
0.000232354
-1.34562e-05
0.000233727
-1.42503e-05
0.000235173
-1.49826e-05
0.000236687
-1.56583e-05
0.000238262
-1.62821e-05
0.000239894
-1.68578e-05
0.000241578
-1.73887e-05
0.00024331
-1.78778e-05
0.000245086
-1.83275e-05
0.000246901
-1.874e-05
0.000248752
-1.91172e-05
0.000250635
-1.94609e-05
0.000252547
-1.97725e-05
0.000254485
-2.00533e-05
0.000256446
-2.03046e-05
0.000258426
-2.05273e-05
0.000260423
-2.07224e-05
0.000262434
-2.08907e-05
0.000264456
-2.1033e-05
0.000266487
-2.11499e-05
0.000268525
-2.12421e-05
0.000270566
-2.13102e-05
0.000272608
-2.13546e-05
0.00027465
-2.13758e-05
0.000276688
-2.13741e-05
0.000278721
-2.13501e-05
0.000280747
-2.13039e-05
0.000282763
-2.12359e-05
0.000284768
-2.11463e-05
0.00028676
-2.10354e-05
0.000288737
-2.09034e-05
0.000290696
-2.07503e-05
0.000292638
-2.05764e-05
0.000294559
-2.03817e-05
0.000296459
-2.01664e-05
0.000298336
-1.99303e-05
0.000300189
-1.96736e-05
0.000302017
-1.93963e-05
0.000303819
-1.90982e-05
0.000305593
-1.87794e-05
0.00030734
-1.84398e-05
0.000309058
-1.80792e-05
0.000310749
-1.76977e-05
0.00031241
-1.7295e-05
0.000314044
-1.68711e-05
0.00031565
-1.6426e-05
0.00031723
-1.59596e-05
0.000318785
-1.5472e-05
0.000320316
-1.49633e-05
0.000321826
-1.44337e-05
0.000323318
-1.38835e-05
0.000324796
-1.33132e-05
0.000326262
-1.27236e-05
0.000327723
-1.21156e-05
0.000329182
-1.14903e-05
0.000330647
-1.08493e-05
0.000332123
-1.01944e-05
0.000333617
-9.528e-06
0.000335137
-8.85266e-06
0.00033669
-8.17153e-06
0.000338283
-7.48814e-06
0.000339924
-6.80646e-06
0.00034162
-6.13082e-06
0.000343375
-5.46583e-06
0.000345195
-4.81632e-06
0.000347082
-4.18717e-06
0.000349038
-3.58313e-06
0.000351063
-3.00873e-06
0.000353154
-2.46809e-06
0.000355305
-1.96435e-06
0.00035751
-1.49956e-06
-1.07499e-06
0.000359756
0.000240298
-2.05616e-06
0.000240646
-4.12752e-06
0.000241159
-5.95811e-06
0.000241822
-7.60262e-06
0.000242625
-9.09199e-06
0.000243554
-1.04456e-05
0.0002446
-1.168e-05
0.000245753
-1.28093e-05
0.000247005
-1.38453e-05
0.000248347
-1.47978e-05
0.000249771
-1.5675e-05
0.000251273
-1.64836e-05
0.000252844
-1.72295e-05
0.00025448
-1.79178e-05
0.000256175
-1.85527e-05
0.000257924
-1.91378e-05
0.000259723
-1.96764e-05
0.000261567
-2.01712e-05
0.000263452
-2.06247e-05
0.000265374
-2.10391e-05
0.000267329
-2.14161e-05
0.000269315
-2.17575e-05
0.000271326
-2.20647e-05
0.000273361
-2.2339e-05
0.000275415
-2.25817e-05
0.000277487
-2.27937e-05
0.000279573
-2.2976e-05
0.000281669
-2.31295e-05
0.000283775
-2.32549e-05
0.000285886
-2.3353e-05
0.000288
-2.34244e-05
0.000290115
-2.34696e-05
0.000292229
-2.34893e-05
0.000294339
-2.34839e-05
0.000296443
-2.34538e-05
0.000298539
-2.33995e-05
0.000300624
-2.33213e-05
0.000302698
-2.32196e-05
0.000304757
-2.30947e-05
0.000306801
-2.29468e-05
0.000308827
-2.27763e-05
0.000310834
-2.25833e-05
0.00031282
-2.23681e-05
0.000314785
-2.21309e-05
0.000316727
-2.18717e-05