/*--------------------------------*- C++ -*----------------------------------*\
| =========                 |                                                 |
| \\      /  F ield         | OpenFOAM: The Open Source CFD Toolbox           |
|  \\    /   O peration     | Version:  2106                                  |
|   \\  /    A nd           | Website:  www.openfoam.com                      |
|    \\/     M anipulation  |                                                 |
\*---------------------------------------------------------------------------*/
FoamFile
{
    version     2.0;
    format      ascii;
    arch        "LSB;label=32;scalar=64";
    class       volScalarField;
    location    "8.6";
    object      T;
}
// * * * * * * * * * * * * * * * * * * * * * * * * * * * * * * * * * * * * * //

dimensions      [0 0 0 1 0 0 0];

internalField   nonuniform List<scalar> 
12013
(
300.004
300.011
300.019
300.027
300.035
300.043
300.052
300.062
300.071
300.081
300.092
300.102
300.114
300.125
300.137
300.149
300.162
300.175
300.189
300.203
300.217
300.232
300.248
300.264
300.28
300.297
300.315
300.333
300.351
300.37
300.39
300.41
300.431
300.452
300.474
300.497
300.52
300.544
300.569
300.594
300.62
300.647
300.675
300.703
300.732
300.762
300.793
300.825
300.857
300.891
300.925
300.961
300.997
301.034
301.073
301.112
301.153
301.195
301.238
301.283
301.329
301.376
301.425
301.475
301.527
301.581
301.637
301.694
301.755
301.817
301.882
301.95
302.021
302.096
302.176
302.26
302.351
302.449
302.557
302.681
302.828
300.004
300.011
300.019
300.027
300.035
300.043
300.052
300.062
300.071
300.081
300.092
300.102
300.114
300.125
300.137
300.149
300.162
300.175
300.189
300.203
300.217
300.232
300.248
300.264
300.28
300.297
300.315
300.332
300.351
300.37
300.39
300.41
300.431
300.452
300.474
300.497
300.52
300.544
300.569
300.594
300.62
300.647
300.675
300.703
300.732
300.762
300.793
300.825
300.857
300.891
300.925
300.96
300.997
301.034
301.073
301.112
301.153
301.195
301.238
301.282
301.328
301.375
301.424
301.474
301.526
301.58
301.636
301.693
301.753
301.816
301.88
301.948
302.019
302.093
302.172
302.255
302.344
302.44
302.544
302.659
302.786
300.004
300.011
300.019
300.027
300.035
300.043
300.052
300.062
300.071
300.081
300.092
300.102
300.114
300.125
300.137
300.149
300.162
300.175
300.189
300.203
300.217
300.232
300.248
300.264
300.28
300.297
300.314
300.332
300.351
300.37
300.39
300.41
300.431
300.452
300.474
300.497
300.52
300.544
300.569
300.594
300.62
300.647
300.675
300.703
300.732
300.762
300.793
300.824
300.857
300.89
300.925
300.96
300.996
301.034
301.072
301.112
301.152
301.194
301.237
301.281
301.327
301.374
301.423
301.473
301.525
301.578
301.634
301.691
301.751
301.812
301.877
301.944
302.014
302.087
302.164
302.246
302.332
302.423
302.52
302.624
302.731
300.004
300.011
300.019
300.027
300.035
300.043
300.052
300.062
300.071
300.081
300.092
300.102
300.114
300.125
300.137
300.149
300.162
300.175
300.189
300.203
300.217
300.232
300.248
300.264
300.28
300.297
300.314
300.332
300.351
300.37
300.39
300.41
300.431
300.452
300.474
300.497
300.52
300.544
300.569
300.594
300.62
300.647
300.674
300.703
300.732
300.762
300.792
300.824
300.857
300.89
300.924
300.959
300.996
301.033
301.071
301.111
301.151
301.193
301.236
301.28
301.326
301.372
301.421
301.471
301.522
301.575
301.63
301.687
301.746
301.807
301.871
301.937
302.005
302.077
302.152
302.23
302.313
302.398
302.488
302.58
302.674
300.004
300.011
300.019
300.027
300.035
300.043
300.052
300.062
300.071
300.081
300.092
300.102
300.113
300.125
300.137
300.149
300.162
300.175
300.189
300.203
300.217
300.232
300.248
300.264
300.28
300.297
300.314
300.332
300.351
300.37
300.39
300.41
300.431
300.452
300.474
300.497
300.52
300.544
300.568
300.594
300.62
300.647
300.674
300.702
300.731
300.761
300.792
300.823
300.856
300.889
300.923
300.959
300.995
301.032
301.07
301.109
301.15
301.191
301.234
301.278
301.323
301.37
301.418
301.467
301.518
301.571
301.626
301.682
301.74
301.8
301.862
301.927
301.994
302.063
302.135
302.21
302.288
302.368
302.449
302.532
302.615
300.004
300.011
300.019
300.027
300.035
300.043
300.052
300.062
300.071
300.081
300.092
300.102
300.113
300.125
300.137
300.149
300.162
300.175
300.189
300.203
300.217
300.232
300.248
300.264
300.28
300.297
300.314
300.332
300.351
300.37
300.389
300.41
300.43
300.452
300.474
300.496
300.52
300.544
300.568
300.593
300.619
300.646
300.674
300.702
300.731
300.761
300.791
300.823
300.855
300.888
300.922
300.957
300.993
301.03
301.068
301.107
301.148
301.189
301.231
301.275
301.32
301.366
301.414
301.463
301.513
301.565
301.619
301.674
301.731
301.79
301.851
301.914
301.979
302.045
302.114
302.185
302.258
302.332
302.407
302.481
302.555
300.004
300.011
300.019
300.027
300.035
300.043
300.052
300.062
300.071
300.081
300.092
300.102
300.113
300.125
300.137
300.149
300.162
300.175
300.189
300.203
300.217
300.232
300.248
300.263
300.28
300.297
300.314
300.332
300.351
300.37
300.389
300.409
300.43
300.452
300.473
300.496
300.519
300.543
300.568
300.593
300.619
300.646
300.673
300.701
300.73
300.76
300.79
300.822
300.854
300.887
300.921
300.956
300.992
301.028
301.066
301.105
301.145
301.186
301.228
301.271
301.316
301.362
301.409
301.457
301.507
301.558
301.611
301.665
301.721
301.778
301.837
301.897
301.96
302.024
302.089
302.156
302.223
302.292
302.36
302.429
302.496
300.004
300.011
300.019
300.027
300.035
300.043
300.052
300.062
300.071
300.081
300.092
300.102
300.113
300.125
300.137
300.149
300.162
300.175
300.189
300.203
300.217
300.232
300.247
300.263
300.28
300.297
300.314
300.332
300.35
300.369
300.389
300.409
300.43
300.451
300.473
300.496
300.519
300.543
300.567
300.592
300.618
300.645
300.672
300.7
300.729
300.759
300.789
300.82
300.852
300.885
300.919
300.954
300.989
301.026
301.063
301.102
301.141
301.182
301.224
301.267
301.311
301.356
301.402
301.45
301.498
301.549
301.6
301.653
301.707
301.763
301.82
301.878
301.937
301.998
302.06
302.122
302.185
302.249
302.312
302.374
302.436
300.004
300.011
300.019
300.027
300.035
300.043
300.052
300.062
300.071
300.081
300.092
300.102
300.113
300.125
300.137
300.149
300.162
300.175
300.189
300.203
300.217
300.232
300.247
300.263
300.28
300.296
300.314
300.332
300.35
300.369
300.389
300.409
300.429
300.451
300.473
300.495
300.518
300.542
300.566
300.592
300.617
300.644
300.671
300.699
300.728
300.757
300.787
300.818
300.85
300.883
300.917
300.951
300.986
301.023
301.06
301.098
301.137
301.177
301.218
301.261
301.304
301.348
301.394
301.441
301.488
301.537
301.587
301.639
301.691
301.745
301.799
301.855
301.912
301.969
302.027
302.086
302.145
302.203
302.261
302.319
302.375
300.004
300.011
300.019
300.027
300.035
300.043
300.052
300.062
300.071
300.081
300.092
300.102
300.113
300.125
300.137
300.149
300.162
300.175
300.188
300.202
300.217
300.232
300.247
300.263
300.279
300.296
300.314
300.331
300.35
300.369
300.388
300.408
300.429
300.45
300.472
300.495
300.518
300.541
300.566
300.591
300.616
300.643
300.67
300.698
300.726
300.755
300.785
300.816
300.848
300.88
300.914
300.948
300.983
301.019
301.055
301.093
301.132
301.171
301.212
301.253
301.296
301.34
301.384
301.43
301.476
301.524
301.572
301.622
301.672
301.724
301.776
301.829
301.883
301.937
301.992
302.046
302.101
302.155
302.209
302.262
302.315
300.004
300.011
300.019
300.027
300.035
300.043
300.052
300.062
300.071
300.081
300.091
300.102
300.113
300.125
300.137
300.149
300.162
300.175
300.188
300.202
300.217
300.232
300.247
300.263
300.279
300.296
300.313
300.331
300.35
300.368
300.388
300.408
300.428
300.45
300.471
300.494
300.517
300.54
300.565
300.589
300.615
300.641
300.668
300.696
300.724
300.753
300.783
300.814
300.845
300.877
300.91
300.944
300.979
301.014
301.05
301.087
301.125
301.164
301.204
301.245
301.287
301.329
301.372
301.417
301.462
301.508
301.555
301.603
301.651
301.7
301.75
301.8
301.851
301.902
301.953
302.004
302.055
302.106
302.156
302.205
302.253
300.004
300.011
300.019
300.027
300.035
300.043
300.052
300.062
300.071
300.081
300.091
300.102
300.113
300.125
300.137
300.149
300.162
300.175
300.188
300.202
300.217
300.231
300.247
300.263
300.279
300.296
300.313
300.331
300.349
300.368
300.387
300.407
300.428
300.449
300.471
300.493
300.516
300.539
300.563
300.588
300.613
300.64
300.666
300.694
300.722
300.751
300.78
300.811
300.842
300.873
300.906
300.939
300.973
301.008
301.044
301.081
301.118
301.156
301.195
301.235
301.275
301.317
301.359
301.402
301.446
301.49
301.535
301.581
301.627
301.674
301.721
301.769
301.817
301.865
301.913
301.96
302.008
302.055
302.101
302.147
302.192
300.004
300.011
300.019
300.026
300.035
300.043
300.052
300.062
300.071
300.081
300.091
300.102
300.113
300.125
300.136
300.149
300.161
300.174
300.188
300.202
300.216
300.231
300.246
300.262
300.279
300.295
300.312
300.33
300.349
300.367
300.387
300.407
300.427
300.448
300.47
300.492
300.514
300.538
300.562
300.586
300.612
300.637
300.664
300.691
300.719
300.748
300.777
300.807
300.837
300.869
300.901
300.934
300.967
301.002
301.037
301.073
301.109
301.146
301.184
301.223
301.263
301.303
301.344
301.385
301.427
301.47
301.513
301.557
301.601
301.645
301.69
301.735
301.78
301.825
301.87
301.914
301.959
302.002
302.046
302.088
302.13
300.004
300.011
300.019
300.026
300.035
300.043
300.052
300.061
300.071
300.081
300.091
300.102
300.113
300.124
300.136
300.149
300.161
300.174
300.188
300.202
300.216
300.231
300.246
300.262
300.278
300.295
300.312
300.33
300.348
300.367
300.386
300.406
300.426
300.447
300.468
300.49
300.513
300.536
300.56
300.584
300.609
300.635
300.661
300.688
300.716
300.744
300.773
300.802
300.833
300.864
300.895
300.927
300.96
300.994
301.028
301.063
301.099
301.135
301.172
301.21
301.248
301.287
301.326
301.366
301.406
301.447
301.489
301.53
301.572
301.614
301.656
301.699
301.741
301.783
301.825
301.867
301.908
301.949
301.989
302.029
302.067
300.004
300.011
300.019
300.026
300.035
300.043
300.052
300.061
300.071
300.081
300.091
300.102
300.113
300.124
300.136
300.148
300.161
300.174
300.187
300.201
300.216
300.23
300.246
300.261
300.278
300.294
300.311
300.329
300.347
300.366
300.385
300.405
300.425
300.446
300.467
300.489
300.511
300.534
300.558
300.582
300.607
300.632
300.658
300.685
300.712
300.74
300.768
300.797
300.827
300.857
300.888
300.92
300.952
300.985
301.019
301.053
301.087
301.123
301.158
301.195
301.232
301.269
301.307
301.345
301.384
301.423
301.462
301.501
301.541
301.581
301.621
301.66
301.7
301.74
301.779
301.818
301.856
301.894
301.932
301.969
302.005
300.004
300.011
300.019
300.026
300.035
300.043
300.052
300.061
300.071
300.081
300.091
300.102
300.113
300.124
300.136
300.148
300.161
300.174
300.187
300.201
300.215
300.23
300.245
300.261
300.277
300.294
300.311
300.328
300.346
300.365
300.384
300.403
300.423
300.444
300.465
300.487
300.509
300.532
300.555
300.579
300.604
300.629
300.654
300.68
300.707
300.735
300.763
300.791
300.82
300.85
300.88
300.911
300.943
300.975
301.007
301.041
301.074
301.108
301.143
301.178
301.213
301.249
301.286
301.322
301.359
301.396
301.433
301.471
301.508
301.546
301.583
301.62
301.658
301.695
301.731
301.768
301.804
301.839
301.874
301.908
301.942
300.004
300.011
300.018
300.026
300.035
300.043
300.052
300.061
300.071
300.081
300.091
300.102
300.113
300.124
300.136
300.148
300.16
300.173
300.187
300.201
300.215
300.23
300.245
300.26
300.276
300.293
300.31
300.327
300.345
300.363
300.382
300.402
300.422
300.442
300.463
300.485
300.507
300.529
300.552
300.576
300.6
300.625
300.65
300.676
300.702
300.729
300.756
300.784
300.813
300.842
300.872
300.902
300.932
300.963
300.995
301.027
301.06
301.092
301.126
301.159
301.193
301.228
301.262
301.297
301.332
301.367
301.403
301.438
301.473
301.509
301.544
301.579
301.614
301.648
301.683
301.716
301.75
301.783
301.816
301.848
301.879
300.004
300.011
300.018
300.026
300.035
300.043
300.052
300.061
300.071
300.081
300.091
300.101
300.112
300.124
300.135
300.148
300.16
300.173
300.186
300.2
300.214
300.229
300.244
300.26
300.275
300.292
300.309
300.326
300.344
300.362
300.381
300.4
300.42
300.44
300.461
300.482
300.504
300.526
300.549
300.572
300.596
300.62
300.645
300.67
300.696
300.723
300.749
300.777
300.805
300.833
300.862
300.891
300.921
300.951
300.981
301.012
301.043
301.075
301.107
301.139
301.172
301.205
301.238
301.271
301.304
301.337
301.37
301.404
301.437
301.47
301.503
301.536
301.569
301.601
301.633
301.665
301.696
301.727
301.757
301.787
301.817
300.004
300.011
300.018
300.026
300.034
300.043
300.052
300.061
300.071
300.08
300.091
300.101
300.112
300.123
300.135
300.147
300.16
300.173
300.186
300.2
300.214
300.228
300.243
300.259
300.274
300.291
300.307
300.325
300.342
300.36
300.379
300.398
300.418
300.438
300.458
300.479
300.501
300.522
300.545
300.568
300.591
300.615
300.639
300.664
300.689
300.715
300.741
300.768
300.795
300.823
300.851
300.879
300.908
300.937
300.966
300.996
301.026
301.056
301.087
301.118
301.149
301.18
301.211
301.242
301.274
301.305
301.337
301.368
301.399
301.43
301.461
301.492
301.523
301.553
301.583
301.612
301.642
301.67
301.699
301.727
301.754
300.004
300.011
300.018
300.026
300.034
300.043
300.052
300.061
300.07
300.08
300.09
300.101
300.112
300.123
300.135
300.147
300.159
300.172
300.185
300.199
300.213
300.227
300.242
300.258
300.273
300.29
300.306
300.323
300.341
300.359
300.377
300.396
300.415
300.435
300.455
300.476
300.497
300.518
300.54
300.563
300.586
300.609
300.633
300.657
300.682
300.707
300.733
300.758
300.785
300.811
300.838
300.866
300.893
300.921
300.95
300.978
301.007
301.036
301.065
301.094
301.124
301.153
301.183
301.213
301.242
301.272
301.302
301.331
301.36
301.39
301.419
301.447
301.476
301.504
301.532
301.56
301.587
301.614
301.64
301.666
301.692
300.004
300.011
300.018
300.026
300.034
300.043
300.052
300.061
300.07
300.08
300.09
300.101
300.112
300.123
300.134
300.146
300.159
300.172
300.185
300.198
300.212
300.227
300.241
300.256
300.272
300.288
300.305
300.321
300.339
300.356
300.375
300.393
300.412
300.432
300.452
300.472
300.493
300.514
300.535
300.557
300.58
300.603
300.626
300.65
300.674
300.698
300.723
300.748
300.773
300.799
300.825
300.851
300.878
300.905
300.932
300.959
300.987
301.014
301.042
301.07
301.098
301.126
301.154
301.182
301.21
301.238
301.265
301.293
301.321
301.348
301.375
301.402
301.429
301.455
301.481
301.507
301.532
301.558
301.582
301.607
301.631
300.004
300.011
300.018
300.026
300.034
300.043
300.051
300.061
300.07
300.08
300.09
300.1
300.111
300.122
300.134
300.146
300.158
300.171
300.184
300.197
300.211
300.225
300.24
300.255
300.271
300.286
300.303
300.319
300.337
300.354
300.372
300.39
300.409
300.428
300.448
300.468
300.488
300.509
300.53
300.551
300.573
300.596
300.618
300.641
300.664
300.688
300.712
300.736
300.761
300.786
300.811
300.836
300.862
300.887
300.913
300.939
300.965
300.992
301.018
301.044
301.071
301.097
301.124
301.15
301.176
301.202
301.229
301.255
301.28
301.306
301.331
301.356
301.381
301.406
301.43
301.454
301.478
301.502
301.525
301.548
301.57
300.004
300.011
300.018
300.026
300.034
300.043
300.051
300.06
300.07
300.079
300.09
300.1
300.111
300.122
300.133
300.145
300.157
300.17
300.183
300.196
300.21
300.224
300.239
300.254
300.269
300.285
300.301
300.317
300.334
300.351
300.369
300.387
300.405
300.424
300.443
300.463
300.483
300.503
300.524
300.545
300.566
300.588
300.61
300.632
300.655
300.677
300.701
300.724
300.748
300.771
300.795
300.82
300.844
300.869
300.893
300.918
300.943
300.968
300.993
301.018
301.043
301.068
301.093
301.117
301.142
301.167
301.191
301.216
301.24
301.264
301.287
301.311
301.334
301.357
301.38
301.402
301.425
301.447
301.468
301.489
301.51
300.004
300.011
300.018
300.026
300.034
300.042
300.051
300.06
300.069
300.079
300.089
300.1
300.11
300.121
300.133
300.145
300.157
300.169
300.182
300.195
300.209
300.223
300.237
300.252
300.267
300.283
300.298
300.315
300.331
300.348
300.366
300.383
300.401
300.42
300.439
300.458
300.477
300.497
300.517
300.537
300.558
300.579
300.6
300.622
300.644
300.666
300.688
300.711
300.733
300.756
300.779
300.802
300.826
300.849
300.873
300.896
300.92
300.943
300.967
300.99
301.014
301.038
301.061
301.084
301.108
301.131
301.154
301.176
301.199
301.221
301.244
301.266
301.287
301.309
301.33
301.351
301.372
301.392
301.412
301.432
301.452
300.004
300.011
300.018
300.026
300.034
300.042
300.051
300.06
300.069
300.079
300.089
300.099
300.11
300.121
300.132
300.144
300.156
300.168
300.181
300.194
300.208
300.221
300.236
300.25
300.265
300.28
300.296
300.312
300.328
300.345
300.362
300.379
300.397
300.415
300.433
300.452
300.471
300.49
300.51
300.53
300.55
300.57
300.591
300.611
300.632
300.654
300.675
300.697
300.718
300.74
300.762
300.784
300.807
300.829
300.851
300.873
300.896
300.918
300.94
300.963
300.985
301.007
301.029
301.051
301.073
301.095
301.116
301.137
301.159
301.18
301.2
301.221
301.241
301.261
301.281
301.301
301.32
301.339
301.358
301.377
301.395
300.003
300.011
300.018
300.026
300.034
300.042
300.051
300.06
300.069
300.078
300.088
300.099
300.109
300.12
300.131
300.143
300.155
300.167
300.18
300.193
300.206
300.22
300.234
300.248
300.263
300.278
300.293
300.309
300.325
300.341
300.358
300.375
300.392
300.41
300.428
300.446
300.464
300.483
300.502
300.521
300.541
300.56
300.58
300.6
300.621
300.641
300.661
300.682
300.703
300.724
300.745
300.766
300.787
300.808
300.829
300.85
300.872
300.893
300.914
300.935
300.956
300.977
300.997
301.018
301.038
301.059
301.079
301.099
301.119
301.138
301.158
301.177
301.196
301.215
301.233
301.252
301.27
301.288
301.305
301.323
301.34
300.003
300.011
300.018
300.026
300.034
300.042
300.05
300.059
300.068
300.078
300.088
300.098
300.108
300.119
300.13
300.142
300.154
300.166
300.178
300.191
300.204
300.218
300.232
300.246
300.26
300.275
300.29
300.306
300.321
300.337
300.354
300.37
300.387
300.404
300.422
300.44
300.457
300.476
300.494
300.513
300.531
300.55
300.569
300.589
300.608
300.628
300.647
300.667
300.687
300.707
300.727
300.747
300.767
300.787
300.807
300.827
300.847
300.867
300.887
300.907
300.927
300.946
300.966
300.985
301.004
301.024
301.042
301.061
301.08
301.098
301.116
301.134
301.152
301.17
301.187
301.204
301.221
301.238
301.255
301.271
301.287
300.003
300.01
300.018
300.025
300.033
300.042
300.05
300.059
300.068
300.077
300.087
300.097
300.108
300.118
300.13
300.141
300.153
300.165
300.177
300.19
300.203
300.216
300.23
300.243
300.258
300.272
300.287
300.302
300.318
300.333
300.349
300.365
300.382
300.399
300.416
300.433
300.45
300.468
300.485
300.503
300.522
300.54
300.558
300.577
300.595
300.614
300.633
300.652
300.671
300.69
300.709
300.728
300.747
300.766
300.785
300.804
300.823
300.842
300.861
300.879
300.898
300.917
300.935
300.953
300.971
300.989
301.007
301.025
301.042
301.059
301.077
301.093
301.11
301.127
301.143
301.159
301.175
301.19
301.206
301.221
301.236
300.003
300.01
300.018
300.025
300.033
300.041
300.05
300.058
300.068
300.077
300.087
300.097
300.107
300.118
300.129
300.14
300.151
300.163
300.175
300.188
300.201
300.214
300.227
300.241
300.255
300.269
300.284
300.299
300.314
300.329
300.344
300.36
300.376
300.393
300.409
300.426
300.443
300.46
300.477
300.494
300.512
300.529
300.547
300.565
300.583
300.601
300.619
300.637
300.655
300.673
300.691
300.709
300.727
300.745
300.764
300.782
300.799
300.817
300.835
300.853
300.87
300.888
300.905
300.922
300.939
300.956
300.973
300.99
301.006
301.022
301.038
301.054
301.07
301.085
301.101
301.116
301.131
301.145
301.16
301.174
301.188
300.003
300.01
300.018
300.025
300.033
300.041
300.049
300.058
300.067
300.076
300.086
300.096
300.106
300.117
300.127
300.139
300.15
300.162
300.174
300.186
300.199
300.212
300.225
300.238
300.252
300.266
300.28
300.295
300.309
300.324
300.34
300.355
300.371
300.386
300.402
300.419
300.435
300.451
300.468
300.485
300.502
300.519
300.536
300.553
300.57
300.587
300.604
300.622
300.639
300.656
300.674
300.691
300.708
300.725
300.742
300.76
300.777
300.793
300.81
300.827
300.844
300.86
300.877
300.893
300.909
300.925
300.941
300.956
300.972
300.987
301.002
301.017
301.032
301.046
301.061
301.075
301.089
301.103
301.117
301.13
301.143
300.003
300.01
300.017
300.025
300.033
300.041
300.049
300.058
300.067
300.076
300.085
300.095
300.105
300.116
300.126
300.137
300.149
300.16
300.172
300.184
300.197
300.209
300.222
300.235
300.249
300.263
300.277
300.291
300.305
300.32
300.335
300.35
300.365
300.38
300.396
300.411
300.427
300.443
300.459
300.475
300.492
300.508
300.524
300.541
300.557
300.574
300.59
300.607
300.624
300.64
300.657
300.673
300.69
300.706
300.722
300.739
300.755
300.771
300.787
300.803
300.818
300.834
300.85
300.865
300.88
300.895
300.91
300.925
300.94
300.954
300.968
300.983
300.997
301.01
301.024
301.037
301.051
301.064
301.077
301.089
301.102
300.003
300.01
300.017
300.025
300.032
300.04
300.049
300.057
300.066
300.075
300.085
300.094
300.104
300.115
300.125
300.136
300.147
300.159
300.17
300.182
300.194
300.207
300.22
300.233
300.246
300.259
300.273
300.287
300.301
300.315
300.33
300.344
300.359
300.374
300.389
300.404
300.42
300.435
300.451
300.466
300.482
300.498
300.514
300.53
300.545
300.561
300.577
300.593
300.609
300.625
300.641
300.656
300.672
300.688
300.703
300.719
300.734
300.75
300.765
300.78
300.795
300.81
300.825
300.839
300.854
300.868
300.882
300.896
300.91
300.924
300.937
300.951
300.964
300.977
300.99
301.003
301.015
301.028
301.04
301.052
301.064
300.003
300.01
300.017
300.025
300.032
300.04
300.048
300.057
300.065
300.074
300.084
300.093
300.103
300.114
300.124
300.135
300.146
300.157
300.169
300.18
300.192
300.205
300.217
300.23
300.243
300.256
300.27
300.283
300.297
300.311
300.325
300.339
300.354
300.368
300.383
300.398
300.413
300.428
300.443
300.458
300.473
300.488
300.504
300.519
300.534
300.549
300.565
300.58
300.595
300.611
300.626
300.641
300.656
300.671
300.686
300.701
300.716
300.73
300.745
300.759
300.774
300.788
300.802
300.816
300.83
300.843
300.857
300.87
300.883
300.897
300.91
300.922
300.935
300.947
300.96
300.972
300.984
300.996
301.007
301.019
301.03
300.003
300.01
300.017
300.024
300.032
300.04
300.048
300.056
300.065
300.074
300.083
300.093
300.102
300.112
300.123
300.133
300.144
300.155
300.167
300.178
300.19
300.202
300.215
300.227
300.24
300.253
300.266
300.279
300.293
300.307
300.32
300.334
300.349
300.363
300.377
300.391
300.406
300.421
300.435
300.45
300.465
300.479
300.494
300.509
300.524
300.539
300.554
300.568
300.583
300.598
300.612
300.627
300.642
300.656
300.67
300.685
300.699
300.713
300.727
300.741
300.755
300.768
300.782
300.795
300.808
300.821
300.834
300.847
300.86
300.872
300.885
300.897
300.909
300.921
300.933
300.945
300.956
300.967
300.979
300.99
301
300.003
300.01
300.017
300.024
300.032
300.039
300.047
300.056
300.064
300.073
300.082
300.092
300.101
300.111
300.122
300.132
300.143
300.154
300.165
300.177
300.188
300.2
300.212
300.225
300.237
300.25
300.263
300.276
300.289
300.303
300.316
300.33
300.344
300.358
300.372
300.386
300.4
300.414
300.428
300.443
300.457
300.472
300.486
300.5
300.515
300.529
300.544
300.558
300.572
300.586
300.601
300.615
300.629
300.643
300.657
300.671
300.684
300.698
300.711
300.725
300.738
300.751
300.764
300.777
300.79
300.803
300.815
300.828
300.84
300.852
300.864
300.876
300.887
300.899
300.91
300.921
300.932
300.943
300.954
300.965
300.975
300.003
300.01
300.017
300.024
300.031
300.039
300.047
300.055
300.064
300.073
300.082
300.091
300.101
300.111
300.121
300.131
300.142
300.153
300.164
300.175
300.187
300.198
300.21
300.223
300.235
300.248
300.26
300.273
300.286
300.299
300.313
300.326
300.34
300.353
300.367
300.381
300.395
300.409
300.423
300.437
300.451
300.465
300.479
300.493
300.507
300.521
300.535
300.549
300.563
300.577
300.591
300.604
300.618
300.632
300.645
300.659
300.672
300.685
300.698
300.711
300.724
300.737
300.75
300.762
300.775
300.787
300.799
300.811
300.823
300.835
300.846
300.858
300.869
300.88
300.891
300.902
300.913
300.924
300.934
300.944
300.954
300.003
300.01
300.017
300.024
300.031
300.039
300.047
300.055
300.063
300.072
300.081
300.09
300.1
300.11
300.12
300.13
300.141
300.151
300.162
300.174
300.185
300.197
300.209
300.221
300.233
300.245
300.258
300.271
300.284
300.297
300.31
300.323
300.336
300.35
300.363
300.377
300.391
300.404
300.418
300.432
300.446
300.459
300.473
300.487
300.501
300.515
300.528
300.542
300.556
300.569
300.583
300.596
300.61
300.623
300.636
300.649
300.662
300.675
300.688
300.701
300.714
300.726
300.739
300.751
300.763
300.775
300.787
300.799
300.81
300.822
300.833
300.844
300.855
300.866
300.877
300.887
300.898
300.908
300.918
300.929
300.938
300.003
300.01
300.017
300.024
300.031
300.039
300.046
300.055
300.063
300.072
300.081
300.09
300.099
300.109
300.119
300.129
300.14
300.15
300.161
300.173
300.184
300.195
300.207
300.219
300.231
300.244
300.256
300.269
300.281
300.294
300.307
300.32
300.334
300.347
300.36
300.374
300.387
300.401
300.414
300.428
300.442
300.455
300.469
300.483
300.496
300.51
300.523
300.537
300.55
300.564
300.577
300.59
300.604
300.617
300.63
300.643
300.655
300.668
300.681
300.693
300.706
300.718
300.73
300.742
300.754
300.766
300.778
300.789
300.801
300.812
300.823
300.834
300.845
300.856
300.866
300.877
300.887
300.897
300.907
300.917
300.927
300.003
300.01
300.016
300.023
300.031
300.038
300.046
300.054
300.063
300.071
300.08
300.089
300.099
300.109
300.118
300.129
300.139
300.15
300.161
300.172
300.183
300.195
300.206
300.218
300.23
300.242
300.255
300.267
300.28
300.293
300.306
300.319
300.332
300.345
300.358
300.372
300.385
300.399
300.412
300.426
300.439
300.453
300.466
300.48
300.493
300.507
300.52
300.533
300.547
300.56
300.573
300.586
300.599
300.612
300.625
300.638
300.651
300.664
300.676
300.688
300.701
300.713
300.725
300.737
300.749
300.76
300.772
300.783
300.795
300.806
300.817
300.828
300.839
300.849
300.86
300.87
300.88
300.89
300.9
300.91
300.92
300.003
300.01
300.016
300.023
300.031
300.038
300.046
300.054
300.062
300.071
300.08
300.089
300.099
300.108
300.118
300.128
300.139
300.149
300.16
300.171
300.182
300.194
300.206
300.217
300.229
300.242
300.254
300.267
300.279
300.292
300.305
300.318
300.331
300.344
300.357
300.371
300.384
300.397
300.411
300.424
300.438
300.451
300.465
300.478
300.491
300.505
300.518
300.532
300.545
300.558
300.571
300.584
300.597
300.61
300.623
300.636
300.648
300.661
300.674
300.686
300.698
300.71
300.722
300.734
300.746
300.758
300.769
300.78
300.792
300.803
300.814
300.825
300.835
300.846
300.856
300.867
300.877
300.887
300.897
300.906
300.916
300.003
300.01
300.016
300.023
300.031
300.038
300.046
300.054
300.062
300.071
300.08
300.089
300.098
300.108
300.118
300.128
300.138
300.149
300.16
300.171
300.182
300.194
300.205
300.217
300.229
300.241
300.254
300.266
300.279
300.292
300.304
300.317
300.33
300.344
300.357
300.37
300.383
300.397
300.41
300.424
300.437
300.45
300.464
300.477
300.491
300.504
300.518
300.531
300.544
300.557
300.57
300.584
300.597
300.609
300.622
300.635
300.648
300.66
300.673
300.685
300.697
300.709
300.721
300.733
300.745
300.757
300.768
300.779
300.791
300.802
300.813
300.824
300.834
300.845
300.855
300.865
300.876
300.886
300.895
300.905
300.915
303.023
303.152
303.229
303.301
303.365
303.416
303.451
303.491
303.531
303.568
303.599
303.634
303.668
303.702
303.736
303.769
303.8
303.828
303.857
303.887
303.916
303.946
303.975
304.004
304.033
304.062
304.09
304.118
304.145
304.172
304.199
304.226
304.252
304.279
304.305
304.33
304.356
304.381
304.406
304.431
304.456
304.479
304.505
304.532
304.558
304.584
304.607
304.632
304.658
304.684
304.708
304.731
304.755
304.78
304.805
304.831
304.857
304.882
304.908
304.932
304.953
304.976
304.999
305.024
305.049
305.073
305.098
305.123
305.147
305.171
305.195
305.219
305.242
305.266
305.29
305.313
305.337
305.36
305.382
305.407
305.436
305.461
305.485
305.508
305.529
305.55
305.575
305.602
305.627
305.649
305.669
305.693
305.72
305.743
305.768
305.796
305.821
305.843
305.869
305.894
305.915
305.94
305.961
305.986
306.012
306.04
306.065
306.085
306.11
306.13
306.154
306.18
306.207
306.235
306.259
306.279
306.303
306.329
306.355
306.378
306.396
306.418
306.443
306.466
306.489
306.506
306.526
306.547
306.569
306.589
306.609
306.628
306.645
306.662
306.677
306.692
306.704
306.716
306.726
306.734
306.74
306.745
306.747
306.748
306.746
306.741
306.734
306.724
306.711
306.694
306.67
306.644
306.616
306.583
306.544
306.498
306.448
306.361
306.28
306.178
306.044
302.922
303.035
303.123
303.199
303.264
303.319
303.365
303.409
303.451
303.49
303.526
303.563
303.598
303.634
303.668
303.702
303.734
303.764
303.795
303.825
303.855
303.885
303.915
303.945
303.974
304.003
304.032
304.06
304.088
304.116
304.143
304.17
304.197
304.224
304.25
304.276
304.302
304.328
304.353
304.378
304.404
304.429
304.454
304.481
304.507
304.532
304.557
304.582
304.608
304.633
304.658
304.682
304.706
304.732
304.757
304.783
304.808
304.834
304.859
304.884
304.906
304.929
304.953
304.978
305.003
305.027
305.052
305.077
305.102
305.126
305.15
305.174
305.198
305.222
305.246
305.269
305.293
305.317
305.34
305.365
305.392
305.418
305.442
305.465
305.488
305.51
305.534
305.56
305.585
305.608
305.63
305.654
305.68
305.704
305.729
305.756
305.781
305.805
305.83
305.855
305.877
305.902
305.925
305.949
305.975
306.003
306.027
306.049
306.073
306.095
306.119
306.145
306.172
306.199
306.224
306.245
306.269
306.295
306.321
306.344
306.364
306.386
306.41
306.434
306.456
306.475
306.495
306.517
306.538
306.559
306.579
306.598
306.616
306.633
306.648
306.663
306.676
306.687
306.697
306.706
306.712
306.717
306.72
306.72
306.719
306.714
306.707
306.697
306.684
306.666
306.643
306.617
306.588
306.554
306.514
306.467
306.413
306.328
306.243
306.135
305.989
302.84
302.939
303.025
303.1
303.166
303.225
303.276
303.323
303.368
303.41
303.449
303.487
303.525
303.561
303.596
303.631
303.664
303.696
303.728
303.759
303.79
303.821
303.851
303.881
303.911
303.941
303.97
303.999
304.027
304.055
304.083
304.111
304.138
304.165
304.192
304.219
304.245
304.271
304.297
304.323
304.348
304.374
304.4
304.426
304.452
304.478
304.503
304.529
304.555