/*--------------------------------*- C++ -*----------------------------------*\
| =========                 |                                                 |
| \\      /  F ield         | OpenFOAM: The Open Source CFD Toolbox           |
|  \\    /   O peration     | Version:  2106                                  |
|   \\  /    A nd           | Website:  www.openfoam.com                      |
|    \\/     M anipulation  |                                                 |
\*---------------------------------------------------------------------------*/
FoamFile
{
    version     2.0;
    format      ascii;
    arch        "LSB;label=32;scalar=64";
    class       volVectorField;
    location    "8.6";
    object      U;
}
// * * * * * * * * * * * * * * * * * * * * * * * * * * * * * * * * * * * * * //

dimensions      [0 1 -1 0 0 0 0];

internalField   nonuniform List<vector> 
12013
(
(0.100039 -1.09476e-05 0)
(0.1002 -2.0268e-05 0)
(0.100461 -2.89334e-05 0)
(0.100798 -3.69431e-05 0)
(0.101205 -4.4484e-05 0)
(0.101677 -5.16603e-05 0)
(0.102205 -5.8539e-05 0)
(0.102786 -6.51728e-05 0)
(0.103416 -7.16019e-05 0)
(0.10409 -7.78575e-05 0)
(0.104805 -8.39646e-05 0)
(0.105558 -8.9943e-05 0)
(0.106347 -9.58095e-05 0)
(0.107168 -0.000101577 0)
(0.108019 -0.000107256 0)
(0.108898 -0.000112855 0)
(0.109804 -0.00011838 0)
(0.110733 -0.000123839 0)
(0.111685 -0.000129232 0)
(0.112658 -0.000134565 0)
(0.113649 -0.000139838 0)
(0.114658 -0.000145052 0)
(0.115684 -0.000150207 0)
(0.116723 -0.000155302 0)
(0.117776 -0.000160335 0)
(0.118841 -0.000165304 0)
(0.119917 -0.000170206 0)
(0.121001 -0.000175037 0)
(0.122094 -0.000179794 0)
(0.123194 -0.00018447 0)
(0.1243 -0.00018906 0)
(0.12541 -0.000193558 0)
(0.126524 -0.000197957 0)
(0.12764 -0.000202248 0)
(0.128757 -0.000206424 0)
(0.129874 -0.000210473 0)
(0.130991 -0.000214387 0)
(0.132105 -0.000218151 0)
(0.133216 -0.000221755 0)
(0.134323 -0.000225183 0)
(0.135425 -0.000228419 0)
(0.13652 -0.000231446 0)
(0.137607 -0.000234243 0)
(0.138685 -0.000236788 0)
(0.139754 -0.000239057 0)
(0.140811 -0.000241022 0)
(0.141855 -0.000242651 0)
(0.142885 -0.000243908 0)
(0.1439 -0.000244753 0)
(0.144899 -0.00024514 0)
(0.145878 -0.000245014 0)
(0.146838 -0.000244317 0)
(0.147776 -0.000242975 0)
(0.148689 -0.000240908 0)
(0.149577 -0.000238018 0)
(0.150436 -0.000234191 0)
(0.151264 -0.000229293 0)
(0.152058 -0.000223162 0)
(0.152815 -0.000215605 0)
(0.153531 -0.000206387 0)
(0.154201 -0.000195219 0)
(0.154821 -0.000181748 0)
(0.155384 -0.000165529 0)
(0.155884 -0.000146005 0)
(0.156313 -0.00012246 0)
(0.15666 -9.3969e-05 0)
(0.156914 -5.93177e-05 0)
(0.157058 -1.68829e-05 0)
(0.157074 3.55557e-05 0)
(0.156937 0.000101151 0)
(0.156615 0.000184416 0)
(0.156063 0.000291991 0)
(0.155222 0.000433961 0)
(0.154008 0.000626144 0)
(0.152295 0.000894232 0)
(0.149901 0.00128144 0)
(0.146536 0.00186321 0)
(0.141722 0.00277939 0)
(0.134657 0.00433288 0)
(0.124227 0.00741708 0)
(0.112249 0.0162466 0)
(0.100036 -3.34262e-05 0)
(0.100196 -6.21408e-05 0)
(0.100456 -8.87536e-05 0)
(0.100792 -0.000113336 0)
(0.101199 -0.000136479 0)
(0.101669 -0.000158501 0)
(0.102196 -0.000179608 0)
(0.102777 -0.000199962 0)
(0.103405 -0.000219686 0)
(0.104078 -0.000238876 0)
(0.104792 -0.00025761 0)
(0.105544 -0.000275949 0)
(0.106332 -0.000293942 0)
(0.107151 -0.00031163 0)
(0.108002 -0.000329046 0)
(0.10888 -0.000346216 0)
(0.109784 -0.000363161 0)
(0.110712 -0.000379897 0)
(0.111663 -0.000396435 0)
(0.112634 -0.000412784 0)
(0.113624 -0.000428949 0)
(0.114632 -0.000444932 0)
(0.115655 -0.000460734 0)
(0.116693 -0.00047635 0)
(0.117745 -0.000491777 0)
(0.118808 -0.000507005 0)
(0.119882 -0.000522028 0)
(0.120965 -0.000536832 0)
(0.122056 -0.000551406 0)
(0.123154 -0.000565732 0)
(0.124258 -0.000579795 0)
(0.125366 -0.000593574 0)
(0.126478 -0.000607047 0)
(0.127592 -0.000620191 0)
(0.128707 -0.000632979 0)
(0.129822 -0.00064538 0)
(0.130936 -0.000657362 0)
(0.132048 -0.000668889 0)
(0.133157 -0.00067992 0)
(0.134262 -0.000690412 0)
(0.135361 -0.000700316 0)
(0.136453 -0.000709577 0)
(0.137538 -0.000718134 0)
(0.138614 -0.000725919 0)
(0.13968 -0.000732857 0)
(0.140734 -0.000738862 0)
(0.141776 -0.000743839 0)
(0.142803 -0.000747677 0)
(0.143816 -0.000750252 0)
(0.144811 -0.000751425 0)
(0.145788 -0.000751032 0)
(0.146745 -0.000748888 0)
(0.14768 -0.000744774 0)
(0.148591 -0.000738442 0)
(0.149477 -0.000729596 0)
(0.150333 -0.00071789 0)
(0.151159 -0.000702913 0)
(0.151952 -0.000684177 0)
(0.152707 -0.000661092 0)
(0.153421 -0.000632947 0)
(0.154091 -0.000598871 0)
(0.154711 -0.000557791 0)
(0.155275 -0.00050837 0)
(0.155778 -0.000448925 0)
(0.15621 -0.000377311 0)
(0.156563 -0.000290759 0)
(0.156826 -0.000185645 0)
(0.156983 -5.71515e-05 0)
(0.157018 0.000101247 0)
(0.156909 0.000298667 0)
(0.156626 0.000548051 0)
(0.156134 0.000868176 0)
(0.155383 0.00128702 0)
(0.154307 0.00184738 0)
(0.152818 0.00261657 0)
(0.150794 0.0037029 0)
(0.148073 0.00528362 0)
(0.144428 0.00765144 0)
(0.139585 0.011294 0)
(0.133556 0.016935 0)
(0.128668 0.0249798 0)
(0.100033 -5.68143e-05 0)
(0.100191 -0.000106588 0)
(0.100448 -0.000152425 0)
(0.100783 -0.00019475 0)
(0.101187 -0.000234589 0)
(0.101655 -0.000272493 0)
(0.102181 -0.000308814 0)
(0.102759 -0.000343836 0)
(0.103385 -0.000377772 0)
(0.104056 -0.000410787 0)
(0.104768 -0.000443014 0)
(0.105518 -0.00047456 0)
(0.106303 -0.000505509 0)
(0.10712 -0.000535931 0)
(0.107968 -0.000565883 0)
(0.108843 -0.00059541 0)
(0.109745 -0.000624549 0)
(0.11067 -0.000653325 0)
(0.111618 -0.000681759 0)
(0.112586 -0.000709867 0)
(0.113574 -0.000737656 0)
(0.114578 -0.000765131 0)
(0.115599 -0.00079229 0)
(0.116634 -0.00081913 0)
(0.117682 -0.00084564 0)
(0.118741 -0.000871809 0)
(0.119812 -0.00089762 0)
(0.120891 -0.000923055 0)
(0.121979 -0.000948089 0)
(0.123073 -0.000972697 0)
(0.124173 -0.000996848 0)
(0.125277 -0.00102051 0)
(0.126384 -0.00104364 0)
(0.127494 -0.00106621 0)
(0.128605 -0.00108815 0)
(0.129716 -0.00110944 0)
(0.130826 -0.00112999 0)
(0.131933 -0.00114977 0)
(0.133037 -0.00116868 0)
(0.134137 -0.00118667 0)
(0.135231 -0.00120365 0)
(0.136319 -0.00121951 0)
(0.137398 -0.00123417 0)
(0.138469 -0.0012475 0)
(0.13953 -0.00125937 0)
(0.140579 -0.00126963 0)
(0.141615 -0.00127813 0)
(0.142637 -0.00128467 0)
(0.143644 -0.00128904 0)
(0.144634 -0.00129101 0)
(0.145606 -0.0012903 0)
(0.146557 -0.00128658 0)
(0.147487 -0.0012795 0)
(0.148393 -0.00126862 0)
(0.149273 -0.00125344 0)
(0.150125 -0.00123339 0)
(0.150947 -0.00120777 0)
(0.151735 -0.00117575 0)
(0.152486 -0.00113635 0)
(0.153198 -0.00108837 0)
(0.153866 -0.00103037 0)
(0.154485 -0.000960545 0)
(0.15505 -0.000876698 0)
(0.155556 -0.000776054 0)
(0.155995 -0.000655105 0)
(0.156358 -0.000509354 0)
(0.156636 -0.000332967 0)
(0.156816 -0.000118274 0)
(0.156884 0.000144947 0)
(0.156821 0.000470664 0)
(0.156607 0.000878289 0)
(0.156214 0.0013952 0)
(0.155609 0.0020607 0)
(0.154754 0.00293221 0)
(0.153606 0.0040947 0)
(0.152118 0.00567474 0)
(0.150258 0.00785911 0)
(0.148032 0.0109142 0)
(0.145553 0.0151904 0)
(0.143255 0.0209962 0)
(0.14242 0.0278165 0)
(0.10003 -8.09092e-05 0)
(0.100186 -0.000153487 0)
(0.100439 -0.000219874 0)
(0.10077 -0.00028121 0)
(0.101171 -0.000338919 0)
(0.101636 -0.000393806 0)
(0.102158 -0.000446392 0)
(0.102733 -0.000497089 0)
(0.103356 -0.000546206 0)
(0.104024 -0.000593986 0)
(0.104732 -0.000640619 0)
(0.105478 -0.000686261 0)
(0.10626 -0.000731035 0)
(0.107073 -0.000775044 0)
(0.107917 -0.000818368 0)
(0.108788 -0.000861072 0)
(0.109686 -0.00090321 0)
(0.110607 -0.00094482 0)
(0.111551 -0.000985932 0)
(0.112515 -0.00102657 0)
(0.113497 -0.00106674 0)
(0.114497 -0.00110645 0)
(0.115513 -0.0011457 0)
(0.116543 -0.00118448 0)
(0.117586 -0.00122278 0)
(0.11864 -0.00126058 0)
(0.119705 -0.00129787 0)
(0.120779 -0.0013346 0)
(0.121861 -0.00137074 0)
(0.122949 -0.00140627 0)
(0.124043 -0.00144113 0)
(0.125141 -0.00147527 0)
(0.126243 -0.00150865 0)
(0.127346 -0.00154119 0)
(0.128451 -0.00157284 0)
(0.129555 -0.00160352 0)
(0.130658 -0.00163315 0)
(0.131758 -0.00166164 0)
(0.132855 -0.00168889 0)
(0.133948 -0.00171478 0)
(0.135034 -0.00173921 0)
(0.136114 -0.00176203 0)
(0.137186 -0.00178309 0)
(0.138249 -0.00180223 0)
(0.139302 -0.00181926 0)
(0.140343 -0.00183397 0)
(0.141371 -0.00184613 0)
(0.142386 -0.00185546 0)
(0.143385 -0.00186167 0)
(0.144366 -0.00186441 0)
(0.14533 -0.00186329 0)
(0.146273 -0.00185786 0)
(0.147195 -0.00184759 0)
(0.148093 -0.00183189 0)
(0.148966 -0.00181004 0)
(0.149811 -0.00178122 0)
(0.150626 -0.00174446 0)
(0.151408 -0.00169861 0)
(0.152155 -0.00164228 0)
(0.152863 -0.00157382 0)
(0.153529 -0.00149122 0)
(0.154148 -0.00139204 0)
(0.154715 -0.00127325 0)
(0.155227 -0.00113111 0)
(0.155675 -0.000960911 0)
(0.156054 -0.000756693 0)
(0.156355 -0.000510824 0)
(0.156569 -0.000213432 0)
(0.156685 0.000148353 0)
(0.15669 0.000591588 0)
(0.156571 0.00113927 0)
(0.156313 0.00182259 0)
(0.155901 0.00268422 0)
(0.155324 0.0037827 0)
(0.154576 0.00519819 0)
(0.153672 0.0070387 0)
(0.15266 0.00944354 0)
(0.151654 0.0125747 0)
(0.150878 0.0165727 0)
(0.150721 0.0214034 0)
(0.151748 0.0264173 0)
(0.100027 -0.000105718 0)
(0.100179 -0.000202748 0)
(0.100428 -0.000291058 0)
(0.100755 -0.000372739 0)
(0.101152 -0.000449562 0)
(0.101612 -0.000522602 0)
(0.10213 -0.000592564 0)
(0.1027 -0.000659997 0)
(0.103319 -0.000725319 0)
(0.103981 -0.00078885 0)
(0.104685 -0.000850848 0)
(0.105426 -0.000911518 0)
(0.106202 -0.000971027 0)
(0.107011 -0.00102951 0)
(0.107849 -0.00108707 0)
(0.108715 -0.00114381 0)
(0.109607 -0.00119978 0)
(0.110523 -0.00125505 0)
(0.11146 -0.00130964 0)
(0.112418 -0.00136359 0)
(0.113395 -0.00141692 0)
(0.114388 -0.00146963 0)
(0.115397 -0.00152172 0)
(0.11642 -0.00157318 0)
(0.117456 -0.00162399 0)
(0.118504 -0.00167414 0)
(0.119561 -0.00172358 0)
(0.120628 -0.00177228 0)
(0.121702 -0.00182019 0)
(0.122783 -0.00186727 0)
(0.123868 -0.00191345 0)
(0.124958 -0.00195868 0)
(0.126051 -0.00200287 0)
(0.127146 -0.00204595 0)
(0.128242 -0.00208784 0)
(0.129337 -0.00212842 0)
(0.130431 -0.00216759 0)
(0.131522 -0.00220524 0)
(0.132609 -0.00224124 0)
(0.133692 -0.00227543 0)
(0.134769 -0.00230766 0)
(0.135839 -0.00233775 0)
(0.136901 -0.0023655 0)
(0.137953 -0.00239069 0)
(0.138996 -0.00241308 0)
(0.140026 -0.00243239 0)
(0.141044 -0.00244831 0)
(0.142048 -0.0024605 0)
(0.143036 -0.00246855 0)
(0.144007 -0.00247203 0)
(0.14496 -0.00247041 0)
(0.145893 -0.00246312 0)
(0.146805 -0.00244948 0)
(0.147693 -0.0024287 0)
(0.148557 -0.00239989 0)
(0.149393 -0.00236198 0)
(0.1502 -0.00231374 0)
(0.150975 -0.0022537 0)
(0.151716 -0.00218013 0)
(0.15242 -0.00209094 0)
(0.153084 -0.00198363 0)
(0.153704 -0.00185519 0)
(0.154276 -0.00170191 0)
(0.154796 -0.00151927 0)
(0.155259 -0.00130165 0)
(0.15566 -0.00104203 0)
(0.155993 -0.000731609 0)
(0.156252 -0.000359212 0)
(0.156431 8.93516e-05 0)
(0.156522 0.000632023 0)
(0.15652 0.00129223 0)
(0.156423 0.00210025 0)
(0.15623 0.00309503 0)
(0.15595 0.00432621 0)
(0.155604 0.0058557 0)
(0.155239 0.00775726 0)
(0.154932 0.0101108 0)
(0.154813 0.0129838 0)
(0.155079 0.016386 0)
(0.15598 0.0201712 0)
(0.157743 0.0238662 0)
(0.100024 -0.000131252 0)
(0.100173 -0.000254289 0)
(0.100417 -0.000365927 0)
(0.100738 -0.000469328 0)
(0.101129 -0.000566571 0)
(0.101584 -0.000658994 0)
(0.102096 -0.000747501 0)
(0.10266 -0.00083279 0)
(0.103273 -0.000915389 0)
(0.10393 -0.000995708 0)
(0.104627 -0.00107407 0)
(0.105362 -0.00115075 0)
(0.106132 -0.00122594 0)
(0.106934 -0.00129982 0)
(0.107765 -0.00137253 0)
(0.108624 -0.00144418 0)
(0.109509 -0.00151485 0)
(0.110417 -0.00158462 0)
(0.111347 -0.00165353 0)
(0.112297 -0.00172161 0)
(0.113265 -0.00178889 0)
(0.114251 -0.00185538 0)
(0.115251 -0.00192108 0)
(0.116266 -0.00198596 0)
(0.117293 -0.00205002 0)
(0.118331 -0.00211321 0)
(0.11938 -0.0021755 0)
(0.120437 -0.00223684 0)
(0.121501 -0.00229718 0)
(0.122572 -0.00235645 0)
(0.123647 -0.00241457 0)
(0.124727 -0.00247147 0)
(0.125809 -0.00252705 0)
(0.126893 -0.00258121 0)
(0.127978 -0.00263383 0)
(0.129061 -0.00268481 0)
(0.130144 -0.00273399 0)
(0.131223 -0.00278123 0)
(0.132299 -0.00282637 0)
(0.133369 -0.00286921 0)
(0.134434 -0.00290957 0)
(0.135491 -0.00294722 0)
(0.136541 -0.00298191 0)
(0.137581 -0.00301337 0)
(0.13861 -0.00304129 0)
(0.139628 -0.00306533 0)
(0.140632 -0.00308511 0)
(0.141623 -0.0031002 0)
(0.142598 -0.0031101 0)
(0.143557 -0.00311427 0)
(0.144497 -0.00311208 0)
(0.145418 -0.00310281 0)
(0.146318 -0.00308565 0)
(0.147194 -0.00305965 0)
(0.148047 -0.0030237 0)
(0.148873 -0.00297656 0)
(0.149671 -0.00291673 0)
(0.150439 -0.00284247 0)
(0.151174 -0.00275174 0)
(0.151874 -0.00264212 0)
(0.152537 -0.0025107 0)
(0.153159 -0.00235403 0)
(0.153738 -0.00216793 0)
(0.15427 -0.00194736 0)
(0.154753 -0.00168615 0)
(0.155183 -0.00137679 0)
(0.155556 -0.00101002 0)
(0.15587 -0.00057444 0)
(0.156123 -5.60123e-05 0)
(0.156313 0.00056227 0)
(0.156442 0.00130135 0)
(0.156515 0.00218693 0)
(0.156544 0.00324984 0)
(0.15655 0.00452599 0)
(0.156565 0.00605524 0)
(0.156643 0.00787787 0)
(0.156862 0.0100265 0)
(0.157327 0.0125103 0)
(0.158173 0.0152854 0)
(0.159536 0.0182101 0)
(0.161497 0.0209914 0)
(0.100021 -0.000157524 0)
(0.100166 -0.000308044 0)
(0.100404 -0.000444427 0)
(0.100719 -0.000570948 0)
(0.101104 -0.000689961 0)
(0.101552 -0.000803051 0)
(0.102057 -0.000911328 0)
(0.102615 -0.00101564 0)
(0.10322 -0.00111664 0)
(0.103869 -0.00121483 0)
(0.104559 -0.00131061 0)
(0.105286 -0.0014043 0)
(0.106048 -0.00149616 0)
(0.106841 -0.0015864 0)
(0.107665 -0.00167519 0)
(0.108515 -0.00176267 0)
(0.109391 -0.00184893 0)
(0.11029 -0.00193407 0)
(0.111211 -0.00201815 0)
(0.112151 -0.0021012 0)
(0.11311 -0.00218325 0)
(0.114085 -0.00226432 0)
(0.115075 -0.00234439 0)
(0.116079 -0.00242346 0)
(0.117096 -0.00250149 0)
(0.118123 -0.00257845 0)
(0.11916 -0.00265429 0)
(0.120205 -0.00272895 0)
(0.121258 -0.00280237 0)
(0.122316 -0.00287445 0)
(0.12338 -0.00294512 0)
(0.124447 -0.00301427 0)
(0.125516 -0.00308179 0)
(0.126587 -0.00314755 0)
(0.127658 -0.00321142 0)
(0.128728 -0.00327325 0)
(0.129797 -0.00333288 0)
(0.130862 -0.00339011 0)
(0.131923 -0.00344476 0)
(0.13298 -0.0034966 0)
(0.13403 -0.0035454 0)
(0.135072 -0.00359087 0)
(0.136107 -0.00363273 0)
(0.137131 -0.00367064 0)
(0.138146 -0.00370425 0)
(0.139148 -0.00373313 0)
(0.140138 -0.00375685 0)
(0.141113 -0.00377487 0)
(0.142073 -0.00378664 0)
(0.143017 -0.00379149 0)
(0.143943 -0.00378869 0)
(0.144849 -0.00377741 0)
(0.145735 -0.00375669 0)
(0.146599 -0.00372543 0)
(0.14744 -0.00368238 0)
(0.148255 -0.00362608 0)
(0.149043 -0.00355487 0)
(0.149803 -0.00346677 0)
(0.150532 -0.00335952 0)
(0.15123 -0.00323042 0)
(0.151893 -0.00307634 0)
(0.152519 -0.00289356 0)
(0.153108 -0.00267764 0)
(0.153657 -0.00242337 0)
(0.154163 -0.00212446 0)
(0.154627 -0.00177347 0)
(0.155047 -0.00136147 0)
(0.155423 -0.000877838 0)
(0.155756 -0.000309971 0)
(0.156051 0.000356877 0)
(0.156313 0.0011392 0)
(0.156554 0.00205624 0)
(0.15679 0.00312912 0)
(0.157045 0.00437973 0)
(0.157356 0.00582857 0)
(0.15777 0.00749079 0)
(0.158348 0.00936965 0)
(0.159164 0.0114464 0)
(0.160298 0.0136662 0)
(0.161815 0.0159215 0)
(0.163735 0.018042 0)
(0.100018 -0.00018456 0)
(0.10016 -0.00036397 0)
(0.100392 -0.000526519 0)
(0.1007 -0.000677565 0)
(0.101077 -0.000819728 0)
(0.101517 -0.000954811 0)
(0.102014 -0.00108412 0)
(0.102563 -0.00120868 0)
(0.10316 -0.00132925 0)
(0.103801 -0.00144643 0)
(0.104482 -0.00156072 0)
(0.105199 -0.00167248 0)
(0.105952 -0.00178203 0)
(0.106735 -0.00188962 0)
(0.107549 -0.00199545 0)
(0.108389 -0.0020997 0)
(0.109254 -0.00220247 0)
(0.110142 -0.00230388 0)
(0.111052 -0.00240399 0)
(0.111981 -0.00250286 0)
(0.112928 -0.00260051 0)
(0.113891 -0.00269695 0)
(0.11487 -0.00279219 0)
(0.115861 -0.0028862 0)
(0.116865 -0.00297896 0)
(0.117879 -0.0030704 0)
(0.118903 -0.00316049 0)
(0.119934 -0.00324914 0)
(0.120973 -0.00333628 0)
(0.122017 -0.0034218 0)
(0.123066 -0.0035056 0)
(0.124118 -0.00358757 0)
(0.125173 -0.00366756 0)
(0.126228 -0.00374544 0)
(0.127284 -0.00382103 0)
(0.128338 -0.00389417 0)
(0.12939 -0.00396465 0)
(0.130439 -0.00403226 0)
(0.131484 -0.00409677 0)
(0.132523 -0.00415792 0)
(0.133557 -0.00421542 0)
(0.134582 -0.00426896 0)
(0.135599 -0.00431819 0)
(0.136607 -0.00436274 0)
(0.137604 -0.00440217 0)
(0.138589 -0.00443601 0)
(0.139561 -0.00446374 0)
(0.140519 -0.00448477 0)
(0.141463 -0.00449844 0)
(0.14239 -0.00450401 0)
(0.143299 -0.00450065 0)
(0.14419 -0.00448741 0)
(0.145061 -0.00446323 0)
(0.145911 -0.00442688 0)
(0.146738 -0.00437699 0)
(0.147542 -0.00431195 0)
(0.14832 -0.00422996 0)
(0.149072 -0.0041289 0)
(0.149797 -0.00400636 0)
(0.150492 -0.00385954 0)
(0.151157 -0.00368518 0)
(0.15179 -0.00347951 0)
(0.152391 -0.00323815 0)
(0.152958 -0.00295599 0)
(0.153493 -0.0026271 0)
(0.153994 -0.00224461 0)
(0.154464 -0.00180061 0)
(0.154905 -0.00128602 0)
(0.155321 -0.000690573 0)
(0.155718 -2.76057e-06 0)
(0.156107 0.000789274 0)
(0.156499 0.00169764 0)
(0.156912 0.00273448 0)
(0.157372 0.00391016 0)
(0.157907 0.00523118 0)
(0.158555 0.0066972 0)
(0.15936 0.00829691 0)
(0.160366 0.0100031 0)
(0.161615 0.011767 0)
(0.163136 0.0135151 0)
(0.164924 0.0151506 0)
(0.100014 -0.000212399 0)
(0.100154 -0.00042204 0)
(0.100379 -0.00061217 0)
(0.100679 -0.000789143 0)
(0.101048 -0.000955851 0)
(0.10148 -0.00111428 0)
(0.101968 -0.00126593 0)
(0.102508 -0.00141198 0)
(0.103095 -0.00155332 0)
(0.103725 -0.00169067 0)
(0.104395 -0.00182457 0)
(0.105103 -0.00195549 0)
(0.105844 -0.00208378 0)
(0.106616 -0.00220974 0)
(0.107418 -0.00233362 0)
(0.108246 -0.00245559 0)
(0.109099 -0.00257581 0)
(0.109975 -0.0026944 0)
(0.110872 -0.00281143 0)
(0.111787 -0.00292697 0)
(0.112721 -0.00304106 0)
(0.113671 -0.0031537 0)
(0.114635 -0.00326489 0)
(0.115612 -0.00337462 0)
(0.1166 -0.00348283 0)
(0.1176 -0.00358948 0)
(0.118608 -0.0036945 0)
(0.119624 -0.0037978 0)
(0.120646 -0.00389929 0)
(0.121674 -0.00399886 0)
(0.122706 -0.00409638 0)
(0.123742 -0.00419171 0)
(0.124779 -0.0042847 0)
(0.125817 -0.00437518 0)
(0.126854 -0.00446295 0)
(0.127891 -0.00454781 0)
(0.128925 -0.00462954 0)
(0.129955 -0.00470788 0)
(0.130981 -0.00478258 0)
(0.132002 -0.00485332 0)
(0.133016 -0.00491978 0)
(0.134022 -0.00498161 0)
(0.13502 -0.00503841 0)
(0.136008 -0.00508975 0)
(0.136986 -0.00513515 0)
(0.137951 -0.00517407 0)
(0.138905 -0.00520592 0)
(0.139844 -0.00523005 0)
(0.140769 -0.00524574 0)
(0.141677 -0.00525215 0)
(0.142569 -0.00524838 0)
(0.143443 -0.00523339 0)
(0.144298 -0.00520604 0)
(0.145133 -0.00516501 0)
(0.145947 -0.00510884 0)
(0.146739 -0.00503584 0)
(0.147507 -0.00494413 0)
(0.148252 -0.00483155 0)
(0.148972 -0.00469565 0)
(0.149666 -0.00453363 0)
(0.150334 -0.00434232 0)
(0.150975 -0.0041181 0)
(0.15159 -0.00385686 0)
(0.152179 -0.00355396 0)
(0.152743 -0.00320417 0)
(0.153284 -0.00280162 0)
(0.153804 -0.00233987 0)
(0.154308 -0.00181186 0)
(0.154802 -0.00121009 0)
(0.155293 -0.000526699 0)
(0.155793 0.000246317 0)
(0.156313 0.0011147 0)
(0.156869 0.00208334 0)
(0.157483 0.00315456 0)
(0.158176 0.00432638 0)
(0.158976 0.0055907 0)
(0.159909 0.00693133 0)
(0.161 0.00832204 0)
(0.16227 0.00972532 0)
(0.163727 0.011093 0)
(0.165361 0.0123705 0)
(0.100011 -0.000241086 0)
(0.100147 -0.000482241 0)
(0.100366 -0.000701356 0)
(0.100659 -0.000905647 0)
(0.101019 -0.0010983 0)
(0.101441 -0.00128143 0)
(0.101919 -0.00145675 0)
(0.102448 -0.00162557 0)
(0.103024 -0.00178892 0)
(0.103643 -0.00194761 0)
(0.104301 -0.00210229 0)
(0.104996 -0.00225347 0)
(0.105725 -0.00240158 0)
(0.106484 -0.00254696 0)
(0.107273 -0.00268989 0)
(0.108087 -0.00283057 0)
(0.108927 -0.00296919 0)
(0.109788 -0.00310588 0)
(0.11067 -0.00324073 0)
(0.111571 -0.00337382 0)
(0.112489 -0.00350518 0)
(0.113423 -0.00363484 0)
(0.114371 -0.00376278 0)
(0.115332 -0.00388897 0)
(0.116304 -0.00401338 0)
(0.117286 -0.00413594 0)
(0.118277 -0.00425657 0)
(0.119275 -0.00437517 0)
(0.120279 -0.00449164 0)
(0.121289 -0.00460585 0)
(0.122302 -0.00471764 0)
(0.123318 -0.00482687 0)
(0.124336 -0.00493334 0)
(0.125354 -0.00503688 0)
(0.126372 -0.00513726 0)
(0.127388 -0.00523425 0)
(0.128402 -0.00532758 0)
(0.129411 -0.00541699 0)
(0.130417 -0.00550217 0)
(0.131416 -0.00558277 0)
(0.132409 -0.00565844 0)
(0.133394 -0.00572877 0)
(0.13437 -0.00579333 0)
(0.135337 -0.00585163 0)
(0.136294 -0.00590315 0)
(0.137238 -0.00594729 0)
(0.138171 -0.00598342 0)
(0.139089 -0.00601082 0)
(0.139994 -0.0060287 0)
(0.140883 -0.00603619 0)
(0.141756 -0.00603231 0)
(0.142612 -0.00601597 0)
(0.14345 -0.00598597 0)
(0.14427 -0.00594096 0)
(0.14507 -0.00587943 0)
(0.145849 -0.00579967 0)
(0.146608 -0.00569982 0)
(0.147346 -0.00557774 0)
(0.148061 -0.00543107 0)
(0.148755 -0.00525716 0)
(0.149427 -0.00505308 0)
(0.150078 -0.00481554 0)
(0.150708 -0.00454096 0)
(0.151319 -0.00422536 0)
(0.151912 -0.00386448 0)
(0.152491 -0.00345373 0)
(0.153059 -0.00298833 0)
(0.153621 -0.00246337 0)
(0.154184 -0.00187409 0)
(0.154756 -0.00121601 0)
(0.155346 -0.000485266 0)
(0.155966 0.000321354 0)
(0.15663 0.00120271 0)
(0.157351 0.00215603 0)
(0.158147 0.00317522 0)
(0.159033 0.00424965 0)
(0.160026 0.00536332 0)
(0.161139 0.0064946 0)
(0.162379 0.00761656 0)
(0.163746 0.00869838 0)
(0.165229 0.00970887 0)
(0.100007 -0.000270661 0)
(0.100141 -0.000544567 0)
(0.100354 -0.000794055 0)
(0.100638 -0.00102704 0)
(0.100988 -0.00124702 0)
(0.1014 -0.00145624 0)
(0.101867 -0.00165655 0)
(0.102384 -0.00184943 0)
(0.102948 -0.00203604 0)
(0.103554 -0.00221729 0)
(0.1042 -0.00239391 0)
(0.104881 -0.00256649 0)
(0.105596 -0.00273552 0)
(0.106341 -0.00290137 0)
(0.107114 -0.00306436 0)
(0.107914 -0.00322475 0)
(0.108737 -0.00338273 0)
(0.109583 -0.00353845 0)
(0.110448 -0.00369203 0)
(0.111332 -0.00384354 0)
(0.112233 -0.00399302 0)
(0.11315 -0.0041405 0)
(0.11408 -0.00428596 0)
(0.115022 -0.00442938 0)
(0.115975 -0.00457071 0)
(0.116938 -0.00470987 0)
(0.117909 -0.00484678 0)
(0.118888 -0.00498132 0)
(0.119872 -0.00511336 0)
(0.120861 -0.00524277 0)
(0.121854 -0.00536937 0)
(0.122848 -0.00549299 0)
(0.123845 -0.00561343 0)
(0.124841 -0.00573047 0)
(0.125837 -0.00584386 0)
(0.126831 -0.00595334 0)
(0.127822 -0.00605863 0)
(0.128809 -0.00615941 0)
(0.129791 -0.00625534 0)
(0.130768 -0.00634606 0)
(0.131737 -0.00643117 0)
(0.132699 -0.00651021 0)
(0.133653 -0.00658272 0)
(0.134596 -0.00664817 0)
(0.13553 -0.00670599 0)
(0.136452 -0.00675556 0)
(0.137362 -0.00679617 0)
(0.138259 -0.00682709 0)
(0.139142 -0.00684747 0)
(0.14001 -0.00685641 0)
(0.140864 -0.00685291 0)
(0.141701 -0.00683584 0)
(0.142521 -0.00680399 0)
(0.143325 -0.00675601 0)
(0.14411 -0.00669041 0)
(0.144878 -0.00660554 0)
(0.145627 -0.0064996 0)
(0.146357 -0.00637061 0)
(0.147069 -0.00621639 0)
(0.147763 -0.00603456 0)
(0.14844 -0.00582255 0)
(0.1491 -0.00557759 0)
(0.149744 -0.00529672 0)
(0.150376 -0.00497685 0)
(0.150997 -0.00461475 0)
(0.15161 -0.0042072 0)
(0.15222 -0.00375105 0)
(0.152832 -0.00324342 0)
(0.153452 -0.00268185 0)
(0.154087 -0.00206461 0)
(0.154746 -0.00139091 0)
(0.155438 -0.00066108 0)
(0.156173 0.000123573 0)
(0.156963 0.000957428 0)
(0.157816 0.00183171 0)
(0.158743 0.00273609 0)
(0.159752 0.00365713 0)
(0.160847 0.00457844 0)
(0.162032 0.0054814 0)
(0.163303 0.00634644 0)
(0.164649 0.00715545 0)
(0.100003 -0.000301159 0)
(0.100134 -0.000609012 0)
(0.100341 -0.000890236 0)
(0.100616 -0.00115328 0)
(0.100957 -0.00140195 0)
(0.101358 -0.00163861 0)
(0.101813 -0.00186525 0)
(0.102318 -0.00208349 0)
(0.102868 -0.00229462 0)
(0.103461 -0.00249965 0)
(0.104092 -0.00269939 0)
(0.104758 -0.00289451 0)
(0.105457 -0.00308554 0)
(0.106186 -0.00327293 0)
(0.106944 -0.00345703 0)
(0.107726 -0.00363812 0)
(0.108532 -0.00381642 0)
(0.10936 -0.00399211 0)
(0.110207 -0.0041653 0)
(0.111073 -0.00433609 0)
(0.111954 -0.00450453 0)
(0.112851 -0.00467064 0)
(0.113761 -0.0048344 0)
(0.114683 -0.00499579 0)
(0.115616 -0.00515474 0)
(0.116558 -0.00531118 0)
(0.117507 -0.005465 0)
(0.118464 -0.00561608 0)
(0.119426 -0.00576427 0)
(0.120392 -0.00590943 0)
(0.121362 -0.00605135 0)
(0.122334 -0.00618984 0)
(0.123306 -0.00632468 0)
(0.124279 -0.00645562 0)
(0.125251 -0.0065824 0)
(0.12622 -0.00670472 0)
(0.127186 -0.00682228 0)
(0.128149 -0.00693472 0)
(0.129106 -0.00704168 0)
(0.130058 -0.00714277 0)
(0.131003 -0.00723753 0)
(0.13194 -0.0073255 0)
(0.132868 -0.00740618 0)
(0.133787 -0.007479 0)
(0.134696 -0.00754335 0)
(0.135594 -0.00759859 0)
(0.13648 -0.007644 0)
(0.137354 -0.00767879 0)
(0.138215 -0.00770212 0)
(0.139062 -0.00771307 0)
(0.139894 -0.00771062 0)
(0.140712 -0.00769369 0)
(0.141514 -0.00766107 0)
(0.142301 -0.00761147 0)
(0.143072 -0.00754347 0)
(0.143827 -0.00745555 0)
(0.144566 -0.00734606 0)
(0.14529 -0.00721322 0)
(0.145998 -0.00705515 0)
(0.146692 -0.00686984 0)
(0.147372 -0.00665518 0)
(0.14804 -0.00640898 0)
(0.148698 -0.00612902 0)
(0.149347 -0.00581308 0)
(0.149992 -0.00545902 0)
(0.150634 -0.00506486 0)
(0.151278 -0.00462892 0)
(0.151929 -0.00414996 0)
(0.152593 -0.00362734 0)
(0.153274 -0.0030612 0)
(0.15398 -0.00245272 0)
(0.154717 -0.00180424 0)
(0.155494 -0.00111935 0)
(0.156317 -0.000402563 0)
(0.157193 0.00033975 0)
(0.158128 0.0010973 0)
(0.159123 0.00185815 0)
(0.16018 0.00261057 0)
(0.161299 0.00334206 0)
(0.162474 0.00404034 0)
(0.163699 0.00469488 0)
(0.0999992 -0.000332603 0)
(0.100128 -0.000675564 0)
(0.100329 -0.000989854 0)
(0.100595 -0.00128429 0)
(0.100925 -0.001563 0)
(0.101314 -0.00182845 0)
(0.101757 -0.00208274 0)
(0.102248 -0.00232763 0)
(0.102785 -0.00256452 0)
(0.103362 -0.00279453 0)
(0.103977 -0.00301857 0)
(0.104627 -0.00323736 0)
(0.10531 -0.00345151 0)
(0.106021 -0.0036615 0)
(0.10676 -0.00386773 0)
(0.107524 -0.00407051 0)
(0.108311 -0.00427009 0)
(0.10912 -0.00446666 0)
(0.109947 -0.00466036 0)
(0.110792 -0.00485128 0)
(0.111653 -0.00503949 0)
(0.112528 -0.00522501 0)
(0.113416 -0.00540782 0)
(0.114316 -0.00558789 0)
(0.115226 -0.00576515 0)
(0.116145 -0.00593951 0)
(0.117071 -0.00611086 0)
(0.118004 -0.00627906 0)
(0.118941 -0.00644396 0)
(0.119883 -0.00660537 0)
(0.120828 -0.00676308 0)
(0.121774 -0.00691689 0)
(0.122721 -0.00706654 0)
(0.123668 -0.00721177 0)
(0.124614 -0.00735228 0)
(0.125557 -0.00748777 0)
(0.126497 -0.00761789 0)
(0.127433 -0.00774227 0)
(0.128363 -0.00786051 0)
(0.129288 -0.00797219 0)
(0.130206 -0.00807685 0)
(0.131117 -0.00817399 0)
(0.132019 -0.00826308 0)
(0.132912 -0.00834352 0)
(0.133795 -0.00841471 0)
(0.134667 -0.00847597 0)
(0.135528 -0.00852657 0)
(0.136378 -0.00856573 0)
(0.137215 -0.00859261 0)
(0.138039 -0.00860631 0)
(0.13885 -0.00860584 0)
(0.139648 -0.00859015 0)
(0.140432 -0.00855813 0)
(0.141202 -0.00850857 0)
(0.141958 -0.0084402 0)
(0.1427 -0.00835165 0)
(0.143429 -0.0082415 0)
(0.144144 -0.00810826 0)
(0.144848 -0.00795037 0)
(0.14554 -0.00776626 0)
(0.146223 -0.00755433 0)
(0.146897 -0.00731301 0)
(0.147565 -0.00704079 0)
(0.148228 -0.00673631 0)
(0.14889 -0.00639838 0)
(0.149554 -0.00602609 0)
(0.150224 -0.00561893 0)
(0.150902 -0.00517685 0)
(0.151595 -0.00470045 0)
(0.152305 -0.00419106 0)
(0.153039 -0.00365086 0)
(0.153801 -0.003083 0)
(0.154595 -0.00249164 0)
(0.155426 -0.00188199 0)
(0.156298 -0.00126003 0)
(0.157214 -0.000632023 0)
(0.158175 -4.95188e-06 0)
(0.159181 0.000612175 0)
(0.160229 0.00120988 0)
(0.161315 0.00177922 0)
(0.162433 0.00231411 0)
(0.0999947 -0.000365003 0)
(0.100121 -0.000744193 0)
(0.100316 -0.00109284 0)
(0.100573 -0.00141998 0)
(0.100893 -0.00173004 0)
(0.10127 -0.00202559 0)
(0.101699 -0.00230882 0)
(0.102176 -0.00258162 0)
(0.102697 -0.00284552 0)
(0.103258 -0.00310171 0)
(0.103857 -0.00335121 0)
(0.104489 -0.00359479 0)
(0.105153 -0.00383314 0)
(0.105846 -0.00406678 0)
(0.106565 -0.00429614 0)
(0.107309 -0.00452158 0)
(0.108076 -0.00474338 0)
(0.108863 -0.00496173 0)
(0.109668 -0.0051768 0)
(0.110491 -0.00538869 0)
(0.111329 -0.00559746 0)
(0.112181 -0.00580314 0)
(0.113045 -0.00600572 0)
(0.113921 -0.00620516 0)
(0.114806 -0.00640138 0)
(0.1157 -0.00659428 0)
(0.116601 -0.00678374 0)
(0.117507 -0.0069696 0)
(0.118419 -0.0071517 0)
(0.119334 -0.00732984 0)
(0.120251 -0.00750379 0)
(0.121171 -0.00767332 0)
(0.12209 -0.00783816 0)
(0.123009 -0.00799803 0)
(0.123927 -0.0081526 0)
(0.124842 -0.00830154 0)
(0.125753 -0.0084445 0)
(0.126661 -0.00858107 0)
(0.127563 -0.00871085 0)
(0.12846 -0.00883339 0)
(0.129349 -0.00894819 0)
(0.130232 -0.00905476 0)
(0.131106 -0.00915253 0)
(0.131971 -0.00924093 0)
(0.132827 -0.00931933 0)
(0.133672 -0.00938704 0)
(0.134508 -0.00944337 0)
(0.135332 -0.00948754 0)
(0.136144 -0.00951874 0)
(0.136945 -0.00953612 0)
(0.137734 -0.00953875 0)
(0.138511 -0.00952568 0)
(0.139275 -0.00949589 0)
(0.140027 -0.00944832 0)
(0.140767 -0.00938187 0)
(0.141496 -0.0092954 0)
(0.142214 -0.00918773 0)
(0.142921 -0.0090577 0)
(0.143618 -0.00890413 0)
(0.144308 -0.00872588 0)
(0.14499 -0.00852187 0)
(0.145667 -0.00829112 0)
(0.14634 -0.00803278 0)
(0.147013 -0.0077462 0)
(0.147686 -0.00743099 0)
(0.148364 -0.00708706 0)
(0.149048 -0.00671472 0)
(0.149743 -0.00631475 0)
(0.150451 -0.00588846 0)
(0.151176 -0.00543775 0)
(0.151921 -0.0049652 0)
(0.152689 -0.00447404 0)
(0.153483 -0.0039682 0)
(0.154305 -0.00345225 0)
(0.155156 -0.00293133 0)
(0.156039 -0.00241102 0)
(0.156953 -0.00189703 0)
(0.157897 -0.00139496 0)
(0.15887 -0.000909587 0)
(0.159868 -0.000445119 0)
(0.160887 -5.79514e-06 0)
(0.0999899 -0.000398352 0)
(0.100114 -0.000814852 0)
(0.100303 -0.00119909 0)
(0.100551 -0.00156019 0)
(0.100859 -0.00190287 0)
(0.101224 -0.00222978 0)
(0.101639 -0.00254322 0)
(0.102101 -0.00284517 0)
(0.102605 -0.00313726 0)
(0.103149 -0.00342082 0)
(0.10373 -0.00369689 0)
(0.104343 -0.00396637 0)
(0.104988 -0.00422997 0)
(0.10566 -0.00448827 0)
(0.106358 -0.00474175 0)
(0.107081 -0.0049908 0)
(0.107825 -0.00523571 0)
(0.108589 -0.00547671 0)
(0.109371 -0.00571398 0)
(0.110169 -0.00594762 0)
(0.110983 -0.00617772 0)
(0.111809 -0.00640428 0)
(0.112648 -0.00662732 0)
(0.113498 -0.00684676 0)
(0.114356 -0.00706254 0)
(0.115223 -0.00727456 0)
(0.116096 -0.00748266 0)
(0.116975 -0.00768669 0)
(0.117858 -0.00788646 0)
(0.118744 -0.00808176 0)
(0.119633 -0.00827235 0)
(0.120523 -0.00845797 0)
(0.121413 -0.00863834 0)
(0.122302 -0.00881315 0)