/*--------------------------------*- C++ -*----------------------------------*\
| =========                 |                                                 |
| \\      /  F ield         | OpenFOAM: The Open Source CFD Toolbox           |
|  \\    /   O peration     | Version:  2106                                  |
|   \\  /    A nd           | Website:  www.openfoam.com                      |
|    \\/     M anipulation  |                                                 |
\*---------------------------------------------------------------------------*/
FoamFile
{
    version     2.0;
    format      ascii;
    arch        "LSB;label=32;scalar=64";
    class       surfaceScalarField;
    location    "8.8";
    object      phi;
}
// * * * * * * * * * * * * * * * * * * * * * * * * * * * * * * * * * * * * * //

dimensions      [1 0 -1 0 0 0 0];

oriented        oriented;

internalField   nonuniform List<scalar> 
23692
(
9.31885e-05
-1.091e-07
9.33862e-05
-1.97649e-07
9.36628e-05
-2.76624e-07
9.40091e-05
-3.46241e-07
9.44177e-05
-4.08645e-07
9.48829e-05
-4.65135e-07
9.53995e-05
-5.16577e-07
9.59632e-05
-5.6366e-07
9.65702e-05
-6.06918e-07
9.7217e-05
-6.46777e-07
9.79006e-05
-6.83589e-07
9.86183e-05
-7.17643e-07
9.93676e-05
-7.49181e-07
0.000100146
-7.78407e-07
0.000100952
-8.05499e-07
0.000101782
-8.30602e-07
0.000102636
-8.5385e-07
0.000103512
-8.75349e-07
0.000104407
-8.952e-07
0.00010532
-9.13485e-07
0.000106251
-9.30278e-07
0.000107196
-9.45647e-07
0.000108156
-9.59646e-07
0.000109129
-9.72324e-07
0.000110112
-9.83731e-07
0.000111106
-9.93902e-07
0.000112109
-1.00287e-06
0.00011312
-1.01067e-06
0.000114137
-1.01733e-06
0.00011516
-1.02287e-06
0.000116188
-1.02731e-06
0.000117218
-1.03067e-06
0.000118251
-1.03297e-06
0.000119286
-1.0342e-06
0.00012032
-1.03439e-06
0.000121354
-1.03354e-06
0.000122385
-1.03165e-06
0.000123414
-1.02871e-06
0.000124439
-1.02474e-06
0.000125459
-1.01972e-06
0.000126472
-1.01363e-06
0.000127479
-1.00647e-06
0.000128477
-9.98209e-07
0.000129466
-9.88826e-07
0.000130444
-9.78288e-07
0.000131411
-9.66556e-07
0.000132365
-9.53585e-07
0.000133304
-9.39317e-07
0.000134228
-9.23687e-07
0.000135134
-9.06616e-07
0.000136022
-8.8801e-07
0.00013689
-8.6776e-07
0.000137736
-8.45733e-07
0.000138558
-8.21775e-07
0.000139353
-7.95701e-07
0.000140121
-7.67291e-07
0.000140857
-7.36281e-07
0.000141559
-7.02353e-07
0.000142224
-6.65122e-07
0.000142849
-6.24118e-07
0.000143427
-5.78768e-07
0.000143956
-5.2836e-07
0.000144428
-4.72002e-07
0.000144836
-4.08575e-07
0.000145173
-3.36647e-07
0.000145427
-2.5437e-07
0.000145587
-1.59326e-07
0.000145635
-4.83038e-08
0.000145552
8.30697e-08
0.000145311
2.4092e-07
0.000144877
4.3395e-07
0.000144202
6.74833e-07
0.000143219
9.82539e-07
0.000141833
1.3863e-06
0.000139901
1.93257e-06
0.000137203
2.69729e-06
0.000133395
3.80776e-06
0.000127912
5.48378e-06
0.000119778
8.13332e-06
0.000107177
1.2601e-05
2.13353e-05
8.5842e-05
9.97128e-05
-2.22947e-07
9.99231e-05
-4.07953e-07
0.000100218
-5.71676e-07
0.000100588
-7.15751e-07
0.000101024
-8.44946e-07
0.000101521
-9.61886e-07
0.000102073
-1.06836e-06
0.000102675
-1.1658e-06
0.000103323
-1.25532e-06
0.000104014
-1.33781e-06
0.000104745
-1.41398e-06
0.000105512
-1.48444e-06
0.000106312
-1.5497e-06
0.000107144
-1.61016e-06
0.000108005
-1.66621e-06
0.000108892
-1.71814e-06
0.000109805
-1.76622e-06
0.00011074
-1.81069e-06
0.000111697
-1.85174e-06
0.000112673
-1.88955e-06
0.000113667
-1.92427e-06
0.000114678
-1.95604e-06
0.000115703
-1.98497e-06
0.000116742
-2.01118e-06
0.000117793
-2.03474e-06
0.000118855
-2.05575e-06
0.000119926
-2.07427e-06
0.000121006
-2.09038e-06
0.000122093
-2.10411e-06
0.000123186
-2.11553e-06
0.000124283
-2.12467e-06
0.000125384
-2.13158e-06
0.000126487
-2.13627e-06
0.000127592
-2.13878e-06
0.000128697
-2.13912e-06
0.000129801
-2.13731e-06
0.000130902
-2.13334e-06
0.000132001
-2.12723e-06
0.000133095
-2.11895e-06
0.000134184
-2.10851e-06
0.000135266
-2.09586e-06
0.000136341
-2.08099e-06
0.000137407
-2.06385e-06
0.000138462
-2.04439e-06
0.000139507
-2.02254e-06
0.000140538
-1.99823e-06
0.000141556
-1.97135e-06
0.000142559
-1.9418e-06
0.000143544
-1.90944e-06
0.000144512
-1.8741e-06
0.00014546
-1.83561e-06
0.000146386
-1.79372e-06
0.000147288
-1.74818e-06
0.000148165
-1.69867e-06
0.000149014
-1.64481e-06
0.000149833
-1.58616e-06
0.000150619
-1.52217e-06
0.000151369
-1.45222e-06
0.000152079
-1.37551e-06
0.000152746
-1.2911e-06
0.000153365
-1.19785e-06
0.000153931
-1.09431e-06
0.000154438
-9.78722e-07
0.000154878
-8.48847e-07
0.000155243
-7.01859e-07
0.000155523
-5.34123e-07
0.000155705
-3.40916e-07
0.000155772
-1.16017e-07
0.000155706
1.48904e-07
0.000155482
4.65326e-07
0.000155067
8.4929e-07
0.000154418
1.32361e-06
0.000153479
1.92143e-06
0.000152173
2.6919e-06
0.000150397
3.70933e-06
0.000148006
5.08758e-06
0.000144813
7.00126e-06
0.000140582
9.71452e-06
0.000135094
1.36208e-05
0.000128483
1.92128e-05
2.63472e-05
0.000123471
0.000106693
-3.40861e-07
0.000106916
-6.30637e-07
0.000107229
-8.84951e-07
0.000107622
-1.10887e-06
0.000108087
-1.30959e-06
0.000108616
-1.49122e-06
0.000109204
-1.65657e-06
0.000109846
-1.80787e-06
0.000110538
-1.94685e-06
0.000111275
-2.07489e-06
0.000112054
-2.19313e-06
0.000112872
-2.30248e-06
0.000113727
-2.40374e-06
0.000114614
-2.49757e-06
0.000115532
-2.58452e-06
0.000116479
-2.66507e-06
0.000117453
-2.73965e-06
0.000118451
-2.80861e-06
0.000119472
-2.87226e-06
0.000120513
-2.93088e-06
0.000121573
-2.9847e-06
0.000122651
-3.03392e-06
0.000123745
-3.07875e-06
0.000124853
-3.11933e-06
0.000125975
-3.15581e-06
0.000127107
-3.18831e-06
0.00012825
-3.21696e-06
0.000129402
-3.24184e-06
0.000130561
-3.26305e-06
0.000131726
-3.28065e-06
0.000132896
-3.29472e-06
0.00013407
-3.30532e-06
0.000135246
-3.31248e-06
0.000136424
-3.31624e-06
0.000137601
-3.31664e-06
0.000138778
-3.31368e-06
0.000139952
-3.30739e-06
0.000141122
-3.29776e-06
0.000142288
-3.28478e-06
0.000143448
-3.26843e-06
0.000144601
-3.24867e-06
0.000145745
-3.22546e-06
0.00014688
-3.19873e-06
0.000148004
-3.1684e-06
0.000149116
-3.13437e-06
0.000150215
-3.09652e-06
0.000151298
-3.05471e-06
0.000152365
-3.00877e-06
0.000153414
-2.95848e-06
0.000154444
-2.9036e-06
0.000155452
-2.84384e-06
0.000156437
-2.77887e-06
0.000157397
-2.70827e-06
0.00015833
-2.63157e-06
0.000159233
-2.54819e-06
0.000160105
-2.45748e-06
0.000160941
-2.35861e-06
0.00016174
-2.25064e-06
0.000162497
-2.13239e-06
0.000163208
-2.00245e-06
0.000163869
-1.85913e-06
0.000164475
-1.70031e-06
0.00016502
-1.52339e-06
0.000165496
-1.32514e-06
0.000165896
-1.10146e-06
0.000166209
-8.47156e-07
0.000166423
-5.55564e-07
0.000166525
-2.18008e-07
0.000166497
1.76875e-07
0.000166318
6.44329e-07
0.000165963
1.20508e-06
0.000165399
1.88764e-06
0.000164588
2.73162e-06
0.000163488
3.79255e-06
0.000162048
5.14862e-06
0.000160227
6.90911e-06
0.000158006
9.2223e-06
0.000155445
1.22753e-05
0.000152804
1.62621e-05
0.000150798
2.1218e-05
2.64199e-05
0.000150726
0.000114161
-4.62545e-07
0.000114396
-8.65135e-07
0.000114727
-1.21625e-06
0.000115144
-1.52576e-06
0.000115638
-1.80307e-06
0.0001162
-2.05392e-06
0.000116826
-2.28224e-06
0.000117509
-2.49112e-06
0.000118246
-2.68296e-06
0.00011903
-2.85968e-06
0.00011986
-3.02283e-06
0.000120731
-3.1737e-06
0.000121641
-3.31338e-06
0.000122586
-3.44278e-06
0.000123565
-3.56268e-06
0.000124573
-3.67375e-06
0.00012561
-3.77655e-06
0.000126673
-3.87159e-06
0.000127761
-3.95928e-06
0.00012887
-4.04002e-06
0.000129999
-4.11413e-06
0.000131147
-4.18189e-06
0.000132312
-4.24357e-06
0.000133492
-4.29938e-06
0.000134686
-4.34952e-06
0.000135892
-4.39418e-06
0.000137109
-4.4335e-06
0.000138335
-4.46762e-06
0.000139568
-4.49665e-06
0.000140808
-4.52072e-06
0.000142054
-4.5399e-06
0.000143303
-4.55427e-06
0.000144554
-4.5639e-06
0.000145807
-4.56884e-06
0.000147059
-4.56914e-06
0.000148311
-4.5648e-06
0.000149559
-4.55586e-06
0.000150804
-4.54231e-06
0.000152043
-4.52414e-06
0.000153276
-4.50132e-06
0.000154501
-4.4738e-06
0.000155717
-4.44151e-06
0.000156923
-4.40439e-06
0.000158117
-4.36231e-06
0.000159298
-4.31514e-06
0.000160464
-4.26273e-06
0.000161614
-4.20487e-06
0.000162747
-4.14134e-06
0.00016386
-4.07185e-06
0.000164953
-3.99608e-06
0.000166023
-3.91365e-06
0.000167068
-3.8241e-06
0.000168087
-3.72688e-06
0.000169076
-3.62137e-06
0.000170035
-3.50681e-06
0.00017096
-3.38231e-06
0.000171848
-3.24682e-06
0.000172697
-3.09907e-06
0.000173502
-2.93754e-06
0.00017426
-2.76042e-06
0.000174966
-2.5655e-06
0.000175616
-2.35009e-06
0.000176203
-2.11089e-06
0.000176722
-1.84383e-06
0.000177164
-1.54384e-06
0.000177522
-1.20458e-06
0.000177784
-8.18011e-07
0.00017794
-3.73908e-07
0.000177976
1.40756e-07
0.000177878
7.42943e-07
0.000177628
1.45464e-06
0.000177211
2.30497e-06
0.00017661
3.33213e-06
0.000175817
4.58595e-06
0.000174835
6.13063e-06
0.000173698
8.04594e-06
0.000172496
1.04239e-05
0.00017142
1.33519e-05
0.000170817
1.68647e-05
0.000171216
2.08186e-05
2.4623e-05
0.000173013
0.000122153
-5.87866e-07
0.000122398
-1.11098e-06
0.000122747
-1.56532e-06
0.000123188
-1.96641e-06
0.000123711
-2.3257e-06
0.000124308
-2.6506e-06
0.000124972
-2.94624e-06
0.000125697
-3.21665e-06
0.000126479
-3.46495e-06
0.000127313
-3.69362e-06
0.000128195
-3.9047e-06
0.000129121
-4.09985e-06
0.000130088
-4.28049e-06
0.000131094
-4.4478e-06
0.000132134
-4.60279e-06
0.000133206
-4.74632e-06
0.000134309
-4.87914e-06
0.000135439
-5.00189e-06
0.000136595
-5.11513e-06
0.000137775
-5.21934e-06
0.000138976
-5.31495e-06
0.000140196
-5.40235e-06
0.000141435
-5.48185e-06
0.000142689
-5.55374e-06
0.000143958
-5.6183e-06
0.00014524
-5.67573e-06
0.000146532
-5.72625e-06
0.000147835
-5.77003e-06
0.000149146
-5.80723e-06
0.000150463
-5.83798e-06
0.000151786
-5.8624e-06
0.000153112
-5.88059e-06
0.000154441
-5.89264e-06
0.000155771
-5.89861e-06
0.0001571
-5.89857e-06
0.000158428
-5.89254e-06
0.000159753
-5.88054e-06
0.000161073
-5.86259e-06
0.000162388
-5.83865e-06
0.000163695
-5.80871e-06
0.000164994
-5.77269e-06
0.000166283
-5.73054e-06
0.000167561
-5.68212e-06
0.000168826
-5.62733e-06
0.000170077
-5.56598e-06
0.000171312
-5.49789e-06
0.00017253
-5.4228e-06
0.000173729
-5.34043e-06
0.000174908
-5.25043e-06
0.000176064
-5.15241e-06
0.000177196
-5.04587e-06
0.000178303
-4.93026e-06
0.000179381
-4.80492e-06
0.000180428
-4.66906e-06
0.000181443
-4.52178e-06
0.000182423
-4.36198e-06
0.000183365
-4.18839e-06
0.000184265
-3.99949e-06
0.000185121
-3.79347e-06
0.000185929
-3.56816e-06
0.000186684
-3.32098e-06
0.000187383
-3.04879e-06
0.00018802
-2.7478e-06
0.000188589
-2.41339e-06
0.000189085
-2.03991e-06
0.000189501
-1.62038e-06
0.000189829
-1.14621e-06
0.000190062
-6.06678e-07
0.000190192
1.11914e-08
0.00019021
7.24315e-07
0.000190113
1.55228e-06
0.000189897
2.52073e-06
0.000189568
3.66064e-06
0.000189145
5.00906e-06
0.000188667
6.6085e-06
0.000188209
8.50397e-06
0.000187898
1.07351e-05
0.000187932
1.33182e-05
0.000188585
1.6211e-05
0.000190157
1.92472e-05
2.20419e-05
0.000192738
0.000130703
-7.16819e-07
0.00013096
-1.36781e-06
0.000131326
-1.93191e-06
0.000131791
-2.43074e-06
0.000132343
-2.87764e-06
0.000132974
-3.28166e-06
0.000133677
-3.64923e-06
0.000134446
-3.98534e-06
0.000135275
-4.29389e-06
0.000136159
-4.57799e-06
0.000137095
-4.84016e-06
0.000138077
-5.08249e-06
0.000139104
-5.30675e-06
0.00014017
-5.5144e-06
0.000141274
-5.70671e-06
0.000142413
-5.88474e-06
0.000143583
-6.04944e-06
0.000144783
-6.20159e-06
0.00014601
-6.34189e-06
0.000147262
-6.47096e-06
0.000148536
-6.58933e-06
0.000149831
-6.69745e-06
0.000151145
-6.79575e-06
0.000152476
-6.88458e-06
0.000153822
-6.96427e-06
0.000155182
-7.0351e-06
0.000156553
-7.09732e-06
0.000157934
-7.15114e-06
0.000159324
-7.19678e-06
0.00016072
-7.23439e-06
0.000162122
-7.26413e-06
0.000163528
-7.28612e-06
0.000164936
-7.30048e-06
0.000166344
-7.30728e-06
0.000167752
-7.30659e-06
0.000169158
-7.29847e-06
0.000170561
-7.28294e-06
0.000171958
-7.26001e-06
0.000173349
-7.22966e-06
0.000174733
-7.19186e-06
0.000176107
-7.14654e-06
0.00017747
-7.09361e-06
0.000178821
-7.03296e-06
0.000180158
-6.96441e-06
0.00018148
-6.88778e-06
0.000182785
-6.80284e-06
0.000184071
-6.70929e-06
0.000185338
-6.6068e-06
0.000186582
-6.49496e-06
0.000187803
-6.37331e-06
0.000188998
-6.24128e-06
0.000190166
-6.09821e-06
0.000191305
-5.94335e-06
0.000192412
-5.77578e-06
0.000193484
-5.59447e-06
0.000194521
-5.39817e-06
0.000195518
-5.18542e-06
0.000196473
-4.95452e-06
0.000197383
-4.70345e-06
0.000198244
-4.42981e-06
0.000199054
-4.13078e-06
0.000199808
-3.80298e-06
0.000200503
-3.44238e-06
0.000201134
-3.04416e-06
0.000201696
-2.60254e-06
0.000202186
-2.11058e-06
0.0002026
-1.55993e-06
0.000202934
-9.40563e-07
0.000203186
-2.40567e-07
0.000203356
5.54204e-07
0.000203448
1.45967e-06
0.000203474
2.49481e-06
0.000203454
3.6808e-06
0.000203423
5.04004e-06
0.000203438
6.59406e-06
0.000203582
8.3594e-06
0.000203977
1.03403e-05
0.000204779
1.25162e-05
0.000206167
1.48229e-05
0.000208288
1.71257e-05
1.91968e-05
0.000211133
0.000139852
-8.49513e-07
0.00014012
-1.63536e-06
0.000140504
-2.31581e-06
0.000140991
-2.9186e-06
0.000141573
-3.45892e-06
0.000142239
-3.94735e-06
0.000142981
-4.39165e-06
0.000143794
-4.79784e-06
0.00014467
-5.17063e-06
0.000145606
-5.51379e-06
0.000146596
-5.83038e-06
0.000147637
-6.12293e-06
0.000148724
-6.39358e-06
0.000149854
-6.64411e-06
0.000151023
-6.87604e-06
0.000152229
-7.09069e-06
0.000153469
-7.28918e-06
0.00015474
-7.47247e-06
0.00015604
-7.64142e-06
0.000157365
-7.79675e-06
0.000158715
-7.93912e-06
0.000160087
-8.06909e-06
0.000161479
-8.18716e-06
0.000162888
-8.29376e-06
0.000164313
-8.38929e-06
0.000165752
-8.4741e-06
0.000167203
-8.54848e-06
0.000168665
-8.6127e-06
0.000170135
-8.66701e-06
0.000171613
-8.71162e-06
0.000173095
-8.74669e-06
0.000174582
-8.7724e-06
0.00017607
-8.78887e-06
0.000177559
-8.79622e-06
0.000179047
-8.79451e-06
0.000180533
-8.78383e-06
0.000182014
-8.76421e-06
0.00018349
-8.73566e-06
0.000184958
-8.69817e-06
0.000186418
-8.65171e-06
0.000187868
-8.5962e-06
0.000189306
-8.53154e-06
0.000190731
-8.45761e-06
0.000192141
-8.37422e-06
0.000193534
-8.28116e-06
0.000194909
-8.17816e-06
0.000196265
-8.06491e-06
0.000197599
-7.94103e-06
0.000198911
-7.80606e-06
0.000200197
-7.65947e-06
0.000201456
-7.50065e-06
0.000202687
-7.32887e-06
0.000203887
-7.14328e-06
0.000205054
-6.94289e-06
0.000206186
-6.72657e-06
0.000207281
-6.49298e-06
0.000208336
-6.24054e-06
0.000209349
-5.96746e-06
0.000210317
-5.67161e-06
0.000211238
-5.3505e-06
0.000212108
-5.00126e-06
0.000212926
-4.62048e-06
0.000213688
-4.2042e-06
0.000214391
-3.74779e-06
0.000215035
-3.24582e-06
0.000215616
-2.69197e-06
0.000216135
-2.07893e-06
0.000216593
-1.39826e-06
0.000216992
-6.4037e-07
0.000217341
2.05439e-07
0.000217651
1.15019e-06
0.00021794
2.2053e-06
0.000218239
3.38225e-06
0.000218588
4.69067e-06
0.000219046
6.13614e-06
0.000219688
7.71674e-06
0.00022061
9.41823e-06
0.000221919
1.12075e-05
0.000223718
1.30245e-05
0.000226068
1.47751e-05
1.63314e-05
0.000228934
0.000149642
-9.86122e-07
0.00014992
-1.91346e-06
0.000150321
-2.71683e-06
0.000150832
-3.42984e-06
0.000151443
-4.06949e-06
0.000152143
-4.64778e-06
0.000152926
-5.17379e-06
0.000153782
-5.6546e-06
0.000154708
-6.09579e-06
0.000155696
-6.5018e-06
0.000156742
-6.87627e-06
0.000157841
-7.2222e-06
0.00015899
-7.54212e-06
0.000160184
-7.83816e-06
0.00016142
-8.11212e-06
0.000162695
-8.36556e-06
0.000164006
-8.59981e-06
0.000165349
-8.81603e-06
0.000166723
-9.01521e-06
0.000168125
-9.19824e-06
0.000169552
-9.36588e-06
0.000171002
-9.5188e-06
0.000172472
-9.6576e-06
0.000173961
-9.7828e-06
0.000175467
-9.89486e-06
0.000176987
-9.99419e-06
0.00017852
-1.00812e-05
0.000180063
-1.01561e-05
0.000181616
-1.02193e-05
0.000183175
-1.02709e-05
0.00018474
-1.03113e-05
0.000186308
-1.03406e-05
0.000187878
-1.03589e-05
0.000189449
-1.03664e-05
0.000191018
-1.03633e-05
0.000192583
-1.03495e-05
0.000194144
-1.03252e-05
0.000195699
-1.02903e-05
0.000197246
-1.02448e-05
0.000198783
-1.01888e-05
0.000200309
-1.01222e-05
0.000201822
-1.00448e-05
0.000203321
-9.95652e-06
0.000204804
-9.85716e-06
0.00020627
-9.7465e-06
0.000207716
-9.62426e-06
0.000209141
-9.49008e-06
0.000210544
-9.34357e-06
0.000211922
-9.18424e-06
0.000213274
-9.01153e-06
0.000214598
-8.82478e-06
0.000215893
-8.62322e-06
0.000217155
-8.40598e-06
0.000218384
-8.17201e-06
0.000219578
-7.92013e-06
0.000220734
-7.64898e-06
0.00022185
-7.35697e-06
0.000222925
-7.04229e-06
0.000223957
-6.70284e-06
0.000224942
-6.33621e-06
0.000225881
-5.93966e-06
0.00022677
-5.51001e-06
0.00022761
-5.04365e-06
0.000228398
-4.53649e-06
0.000229136
-3.98389e-06
0.000229825
-3.38066e-06
0.000230467
-2.72106e-06
0.000231068
-1.99885e-06
0.000231635
-1.20737e-06
0.00023218
-3.39743e-07
0.00023272
6.1049e-07
0.000233277
1.64793e-06
0.000233883
2.77597e-06
0.000234579
3.99503e-06
0.000235414
5.30075e-06
0.000236449
6.68185e-06
0.00023775
8.1176e-06
0.000239382
9.57521e-06
0.000241398
1.10078e-05
0.000243819
1.23544e-05
1.35446e-05
0.000246606
0.000160117
-1.12686e-06
0.000160406
-2.20203e-06
0.000160824
-3.13486e-06
0.000161358
-3.96431e-06
0.000161998
-4.70924e-06
0.000162733
-5.38294e-06
0.000163555
-5.99576e-06
0.000164457
-6.55589e-06
0.000165431
-7.06976e-06
0.000166471
-7.54254e-06
0.000167574
-7.97846e-06
0.000168733
-8.38104e-06
0.000169944
-8.75321e-06
0.000171203
-9.09747e-06
0.000172507
-9.41593e-06
0.000173852
-9.71039e-06
0.000175235
-9.98243e-06
0.000176652
-1.02334e-05
0.000178102
-1.04644e-05
0.00017958
-1.06766e-05
0.000181085
-1.08708e-05
0.000182614
-1.10478e-05
0.000184165
-1.12082e-05
0.000185735
-1.13528e-05
0.000187322
-1.14821e-05
0.000188925
-1.15964e-05
0.00019054
-1.16964e-05
0.000192166
-1.17823e-05
0.000193802
-1.18544e-05
0.000195444
-1.19132e-05
0.000197092
-1.19587e-05
0.000198742
-1.19914e-05
0.000200395
-1.20113e-05
0.000202047
-1.20186e-05
0.000203697
-1.20134e-05
0.000205344
-1.19959e-05
0.000206985
-1.19662e-05
0.000208619
-1.19242e-05
0.000210244
-1.18699e-05
0.000211859
-1.18035e-05
0.000213461
-1.17247e-05
0.00021505
-1.16335e-05
0.000216624
-1.15298e-05
0.00021818
-1.14133e-05
0.000219717
-1.12839e-05
0.000221234
-1.11413e-05
0.000222729
-1.0985e-05
0.000224201
-1.08147e-05
0.000225646
-1.063e-05
0.000227065
-1.04301e-05
0.000228455
-1.02145e-05
0.000229814
-9.98242e-06
0.000231141
-9.73292e-06
0.000232434
-9.46502e-06
0.000233691
-9.17755e-06
0.000234912
-8.86919e-06
0.000236093
-8.53842e-06
0.000237234
-8.18355e-06
0.000238334
-7.80264e-06
0.000239392
-7.39352e-06
0.000240406
-6.95376e-06
0.000241376
-6.48064e-06
0.000242304
-5.97117e-06
0.000243189
-5.42206e-06
0.000244035
-4.82978e-06
0.000244845
-4.19057e-06
0.000245625
-3.50055e-06
0.000246382
-2.75587e-06
0.000247127
-1.95289e-06
0.000247876
-1.08842e-06
0.000248646
-1.59912e-07
0.000249461
8.32995e-07
0.00025035
1.88754e-06
0.000251346
2.99857e-06
0.00025249
4.15686e-06
0.000253824
5.34805e-06
0.000255389
6.55168e-06
0.000257224
7.74068e-06
0.00025935
8.88162e-06
0.000261768
9.93647e-06
1.08669e-05
0.000264446
0.000171326
-1.27192e-06
0.000171625
-2.50102e-06
0.00017206
-3.5698e-06
0.000172617
-4.52184e-06
0.000173286
-5.37799e-06
0.000174056
-6.15269e-06
0.000174918
-6.85752e-06
0.000175864
-7.50173e-06
0.000176887
-8.09266e-06
0.00017798
-8.63623e-06
0.000179139
-9.13729e-06
0.000180358
-9.59986e-06
0.000181633
-1.00273e-05
0.000182958
-1.04226e-05
0.00018433
-1.07881e-05
0.000185746
-1.11258e-05
0.000187201
-1.14377e-05
0.000188693
-1.17252e-05
0.000190218
-1.19898e-05
0.000191775
-1.22325e-05
0.000193358
-1.24545e-05
0.000194967
-1.26567e-05
0.000196599
-1.28397e-05
0.000198251
-1.30045e-05
0.00019992
-1.31515e-05
0.000201606
-1.32814e-05
0.000203304
-1.33947e-05
0.000205014
-1.34917e-05
0.000206732
-1.3573e-05
0.000208458
-1.36387e-05
0.000210189
-1.36893e-05
0.000211922
-1.3725e-05
0.000213657
-1.37461e-05
0.000215392
-1.37527e-05
0.000217123
-1.3745e-05
0.00021885
-1.37231e-05
0.000220572
-1.36871e-05
0.000222285
-1.36372e-05
0.000223988
-1.35733e-05
0.00022568
-1.34954e-05
0.000227359
-1.34035e-05
0.000229023
-1.32975e-05
0.000230671
-1.31772e-05
0.0002323
-1.30426e-05
0.000233909
-1.28933e-05
0.000235497
-1.27291e-05
0.000237062
-1.25497e-05
0.000238602
-1.23547e-05
0.000240116
-1.21436e-05
0.000241601
-1.19158e-05
0.000243058
-1.16708e-05
0.000244483
-1.14077e-05
0.000245876
-1.11258e-05
0.000247235
-1.08241e-05
0.000248559
-1.05015e-05
0.000249847
-1.0157e-05
0.000251097
-9.789e-06
0.00025231
-9.39617e-06
0.000253484
-8.97685e-06
0.00025462
-8.52923e-06
0.000255718
-8.05136e-06
0.000256778
-7.54116e-06
0.000257803
-6.99642e-06
0.000258796
-6.41486e-06
0.000259761
-5.79418e-06
0.000260702
-5.13216e-06
0.000261628
-4.42679e-06
0.000262549
-3.67645e-06
0.000263476
-2.8801e-06
0.000264425
-2.03757e-06
0.000265415
-1.14976e-06
0.000266467
-2.18682e-07
0.000267604
7.50575e-07
0.000268852
1.74985e-06
0.000270241
2.76803e-06
0.000271798
3.79142e-06
0.000273547
4.80269e-06
0.000275506
5.78155e-06
0.000277682
6.70544e-06
0.000280067
7.55124e-06
8.2982e-06
0.000282636
0.000183319
-1.42153e-06
0.000183629
-2.8104e-06
0.000184081
-4.02152e-06
0.000184661
-5.10224e-06
0.000185359
-6.07551e-06
0.000186163
-6.95681e-06
0.000187064
-7.75884e-06
0.000188054
-8.49196e-06
0.000189126
-9.16439e-06
0.000190273
-9.78283e-06
0.000191488
-1.03527e-05
0.000192767
-1.08787e-05
0.000194105
-1.13646e-05
0.000195496
-1.18137e-05
0.000196937
-1.22287e-05
0.000198423
-1.26121e-05
0.000199952
-1.29659e-05
0.000201518
-1.32918e-05
0.00020312
-1.35915e-05
0.000204754
-1.38663e-05
0.000206417
-1.41173e-05
0.000208106
-1.43457e-05
0.000209819
-1.45523e-05
0.000211552
-1.47379e-05
0.000213304
-1.49033e-05
0.000215072
-1.50492e-05
0.000216854
-1.5176e-05
0.000218647
-1.52844e-05
0.000220448
-1.53747e-05
0.000222257
-1.54474e-05
0.000224071
-1.55028e-05
0.000225887
-1.55412e-05
0.000227704
-1.5563e-05
0.00022952
-1.55683e-05
0.000231333
-1.55574e-05
0.00023314
-1.55305e-05
0.000234941
-1.54875e-05
0.000236732
-1.54288e-05
0.000238513
-1.53542e-05
0.000240282
-1.52639e-05
0.000242037
-1.51579e-05
0.000243775
-1.5036e-05
0.000245496
-1.48982e-05
0.000247198
-1.47443e-05
0.000248879
-1.45742e-05
0.000250537
-1.43875e-05
0.000252172
-1.41841e-05
0.000253781
-1.39635e-05
0.000255363
-1.37254e-05
0.000256916
-1.34692e-05
0.00025844
-1.31944e-05
0.000259933
-1.29003e-05
0.000261393
-1.25863e-05
0.000262821
-1.22515e-05
0.000264214
-1.1895e-05
0.000265573
-1.15158e-05
0.000266897
-1.11129e-05
0.000268186
-1.06851e-05
0.00026944
-1.02312e-05
0.000270661
-9.74981e-06
0.000271849
-9.23963e-06
0.000273007
-8.69929e-06
0.000274138
-8.12746e-06
0.000275246
-7.52291e-06
0.000276337
-6.88458e-06
0.000277416
-6.21168e-06
0.000278493
-5.50384e-06
0.000279578
-4.76127e-06
0.000280683
-3.98491e-06
0.000281822
-3.17668e-06
0.000283012
-2.33962e-06
0.000284271
-1.478e-06
0.000285619
-5.97105e-07
0.000287073
2.95243e-07
0.000288653
1.18874e-06
0.000290373
2.07113e-06
0.000292247
2.92859e-06
0.000294281
3.74697e-06
0.000296475
4.51155e-06
0.000298818
5.20846e-06
5.82664e-06
0.00030129
0.000196153
-1.5758e-06
0.000196472
-3.13013e-06
0.000196941
-4.48986e-06
0.000197544
-5.70527e-06
0.00019827
-6.80145e-06
0.000199108
-7.79487e-06
0.000200049
-8.69932e-06
0.000201083
-9.52615e-06
0.000202203
-1.02845e-05
0.000203402
-1.09819e-05
0.000204674
-1.16245e-05
0.000206013
-1.22173e-05
0.000207413
-1.27647e-05
0.00020887
-1.32705e-05
0.000210379
-1.37377e-05
0.000211936
-1.41689e-05
0.000213537
-1.45667e-05
0.000215178
-1.49329e-05
0.000216856
-1.52693e-05
0.000218567
-1.55775e-05
0.000220309
-1.58589e-05
0.000222078
-1.61145e-05
0.000223871
-1.63454e-05
0.000225686
-1.65526e-05
0.00022752
-1.6737e-05
0.00022937
-1.68991e-05
0.000231234
-1.70398e-05
0.000233109
-1.71595e-05
0.000234994
-1.72589e-05
0.000236885
-1.73383e-05
0.00023878
-1.73982e-05
0.000240678
-1.7439e-05
0.000242576
-1.7461e-05
0.000244473
-1.74645e-05
0.000246365
-1.74497e-05
0.000248252
-1.74169e-05
0.00025013
-1.73662e-05
0.000251999
-1.72977e-05
0.000253857
-1.72116e-05
0.000255701
-1.7108e-05
0.00025753
-1.69868e-05
0.000259342
-1.6848e-05
0.000261136
-1.66917e-05
0.000262909
-1.65176e-05
0.000264661
-1.63258e-05
0.000266389
-1.61159e-05
0.000268093
-1.58877e-05
0.000269771
-1.56411e-05
0.000271421
-1.53755e-05
0.000273043
-1.50908e-05
0.000274635
-1.47863e-05
0.000276196
-1.44616e-05
0.000277726
-1.41162e-05
0.000279224
-1.37495e-05
0.00028069
-1.33607e-05
0.000282123
-1.29492e-05
0.000283524
-1.25142e-05
0.000284894
-1.2055e-05
0.000286234
-1.15708e-05
0.000287545
-1.10609e-05
0.00028883
-1.05245e-05
0.000290092
-9.96099e-06
0.000291334
-9.36997e-06
0.000292563
-8.75117e-06
0.000293783
-8.10462e-06
0.000295002
-7.43074e-06
0.000296228
-6.73044e-06
0.000297472
-6.00523e-06
0.000298745
-5.25735e-06
0.000300058
-4.4899e-06
0.000301425
-3.70693e-06
0.000302861
-2.91348e-06
0.000304379
-2.11559e-06
0.000305994
-1.32002e-06
0.000307717
-5.34302e-07
0.000309556
2.32324e-07
0.000311515
9.69733e-07
0.000313594
1.66788e-06
0.000315788
2.31709e-06
0.000318088
2.90885e-06
3.43767e-06
0.000320477
0.000209884
-1.73485e-06
0.000210214
-3.46013e-06
0.000210699
-4.97454e-06
0.000211324
-6.33054e-06
0.000212078
-7.5553e-06
0.00021295
-8.6663e-06
0.000213929
-9.67827e-06
0.000215006
-1.06036e-05
0.000216174
-1.14524e-05
0.000217425
-1.22328e-05
0.000218753
-1.29517e-05
0.00022015
-1.36148e-05
0.000221613
-1.42269e-05
0.000223134
-1.47921e-05
0.000224711
-1.53139e-05
0.000226337
-1.57954e-05
0.00022801
-1.62392e-05
0.000229725
-1.66475e-05
0.000231478
-1.70223e-05
0.000233266
-1.73653e-05
0.000235085
-1.7678e-05
0.000236933
-1.79619e-05
0.000238805
-1.8218e-05
0.0002407
-1.84474e-05
0.000242615
-1.86511e-05
0.000244546
-1.88299e-05
0.00024649
-1.89846e-05
0.000248447
-1.91157e-05
0.000250412
-1.9224e-05
0.000252384
-1.931e-05
0.00025436
-1.93741e-05
0.000256338
-1.94167e-05
0.000258315
-1.94384e-05
0.00026029
-1.94394e-05
0.000262261
-1.942e-05
0.000264225
-1.93806e-05
0.00026618
-1.93212e-05
0.000268124
-1.92422e-05
0.000270057
-1.91437e-05
0.000271974
-1.90257e-05
0.000273876
-1.88885e-05
0.00027576
-1.8732e-05
0.000277625
-1.85563e-05
0.000279469
-1.83613e-05
0.00028129
-1.81469e-05
0.000283087
-1.79132e-05
0.00028486
-1.76599e-05
0.000286605
-1.73869e-05
0.000288324
-1.70939e-05
0.000290014
-1.67807e-05
0.000291675
-1.64471e-05
0.000293306
-1.60927e-05
0.000294907
-1.57172e-05
0.000296478
-1.53201e-05
0.000298018
-1.49012e-05
0.000299529
-1.44601e-05
0.000301011
-1.39964e-05
0.000302466
-1.35097e-05
0.000303895
-1.29999e-05
0.000305301
-1.24666e-05
0.000306686
-1.19099e-05
0.000308055
-1.13298e-05
0.000309412
-1.07267e-05
0.000310762
-1.01011e-05
0.000312111
-9.45397e-06
0.000313467
-8.78656e-06
0.000314837
-8.10065e-06
0.00031623
-7.39857e-06
0.000317656
-6.68323e-06
0.000319125
-5.95821e-06
0.000320645
-5.22773e-06
0.000322229
-4.49674e-06
0.000323884
-3.77075e-06
0.00032562
-3.05581e-06
0.000327444
-2.35833e-06
0.000329361
-1.68468e-06
0.000331371
-1.04089e-06
0.000333472
-4.33425e-07
0.000335658
1.31864e-07
0.000337917
6.49872e-07
1.1176e-06
0.000340237
0.000224577
-1.89868e-06
0.000224917
-3.80021e-06
0.000225418
-5.47517e-06
0.000226065
-6.97749e-06
0.000226846
-8.33634e-06
0.00022775
-9.57021e-06
0.000228767
-1.06947e-05
0.000229886
-1.17232e-05
0.000231101
-1.26667e-05
0.000232402
-1.35342e-05
0.000233784
-1.43331e-05
0.000235239
-1.50698e-05
0.000236762
-1.57497e-05
0.000238347
-1.63771e-05
0.00023999
-1.69561e-05
0.000241684
-1.74901e-05
0.000243427
-1.79818e-05
0.000245214
-1.84339e-05
0.00024704
-1.88486e-05
0.000248903
-1.92277e-05
0.000250798
-1.9573e-05
0.000252722
-1.9886e-05
0.000254672
-2.0168e-05
0.000256645
-2.04202e-05
0.000258638
-2.06437e-05
0.000260648
-2.08393e-05
0.000262671
-2.10081e-05
0.000264706
-2.11506e-05
0.00026675
-2.12677e-05
0.0002688
-2.13598e-05
0.000270854
-2.14277e-05
0.000272909
-2.14718e-05
0.000274964
-2.14926e-05
0.000277015
-2.14904e-05
0.000279061
-2.14657e-05
0.000281099
-2.14189e-05
0.000283128
-2.13501e-05
0.000285146
-2.12596e-05
0.00028715
-2.11478e-05
0.000289139
-2.10147e-05
0.000291111
-2.08606e-05
0.000293065
-2.06856e-05
0.000294999
-2.04898e-05
0.000296911
-2.02732e-05
0.0002988
-2.0036e-05
0.000300665
-1.9778e-05
0.000302505
-1.94994e-05
0.000304318
-1.92001e-05
0.000306104
-1.88799e-05
0.000307862
-1.8539e-05
0.000309592
-1.81771e-05
0.000311294
-1.77941e-05
0.000312967
-1.73901e-05
0.000314612
-1.69649e-05
0.000316229
-1.65184e-05
0.00031782
-1.60507e-05
0.000319385
-1.55617e-05
0.000320927
-1.50516e-05
0.000322448
-1.45207e-05
0.00032395
-1.39691e-05
0.000325438
-1.33976e-05
0.000326915
-1.28066e-05
0.000328385
-1.21973e-05
0.000329855
-1.15707e-05
0.000331329
-1.09284e-05
0.000332815
-1.02723e-05
0.000334319
-9.60466e-06
0.000335849
-8.92811e-06
0.000337411
-8.24578e-06
0.000339014
-7.56123e-06
0.000340665
-6.87841e-06
0.00034237
-6.20165e-06
0.000344135
-5.53559e-06
0.000345964
-4.88503e-06
0.00034786
-4.25486e-06
0.000349825
-3.64986e-06
0.000351859
-3.07453e-06
0.000353959
-2.53302e-06
0.000356119
-2.02852e-06
0.000358332
-1.56302e-06
-1.13779e-06
0.000360587
0.000240299
-2.06721e-06
0.000240649
-4.15008e-06
0.000241165
-5.99115e-06
0.000241832
-7.64529e-06
0.00024264
-9.14353e-06
0.000243575
-1.05054e-05
0.000244628
-1.17473e-05
0.000245788
-1.28835e-05
0.000247047
-1.39259e-05
0.000248397
-1.48843e-05
0.000249831
-1.57669e-05
0.000251342
-1.65804e-05
0.000252923
-1.73309e-05
0.00025457
-1.80233e-05
0.000256276
-1.86619e-05
0.000258036
-1.92504e-05
0.000259847
-1.97921e-05
0.000261703
-2.02896e-05
0.0002636
-2.07456e-05
0.000265534
-2.1162e-05
0.000267502
-2.15409e-05
0.000269501
-2.18839e-05
0.000271525
-2.21925e-05
0.000273573
-2.24679e-05
0.000275641
-2.27115e-05
0.000277726
-2.29242e-05
0.000279825
-2.3107e-05
0.000281936
-2.32608e-05
0.000284055
-2.33864e-05
0.00028618
-2.34845e-05
0.000288308
-2.35557e-05
0.000290437
-2.36007e-05
0.000292564
-2.362e-05
0.000294688
-2.3614e-05
0.000296806
-2.35833e-05
0.000298915
-2.35282e-05
0.000301015
-2.34492e-05
0.000303102
-2.33466e-05
0.000305175
-2.32207e-05
0.000307232
-2.30718e-05
0.000309272
-2.29001e-05
0.000311292
-2.2706e-05
0.000313292
-2.24895e-05
0.00031527
-2.2251e-05