/*--------------------------------*- C++ -*----------------------------------*\
| =========                 |                                                 |
| \\      /  F ield         | OpenFOAM: The Open Source CFD Toolbox           |
|  \\    /   O peration     | Version:  2106                                  |
|   \\  /    A nd           | Website:  www.openfoam.com                      |
|    \\/     M anipulation  |                                                 |
\*---------------------------------------------------------------------------*/
FoamFile
{
    version     2.0;
    format      ascii;
    arch        "LSB;label=32;scalar=64";
    class       volScalarField;
    location    "8.8";
    object      T;
}
// * * * * * * * * * * * * * * * * * * * * * * * * * * * * * * * * * * * * * //

dimensions      [0 0 0 1 0 0 0];

internalField   nonuniform List<scalar> 
12013
(
300.004
300.011
300.019
300.027
300.035
300.044
300.053
300.062
300.072
300.082
300.092
300.103
300.114
300.125
300.137
300.15
300.162
300.176
300.189
300.203
300.218
300.233
300.248
300.264
300.281
300.298
300.315
300.333
300.352
300.371
300.39
300.411
300.431
300.453
300.475
300.498
300.521
300.545
300.57
300.595
300.621
300.648
300.675
300.704
300.733
300.763
300.794
300.825
300.858
300.891
300.926
300.961
300.997
301.035
301.073
301.113
301.153
301.195
301.238
301.283
301.329
301.376
301.425
301.475
301.527
301.581
301.637
301.694
301.754
301.817
301.882
301.95
302.021
302.096
302.175
302.26
302.35
302.448
302.557
302.68
302.827
300.004
300.011
300.019
300.027
300.035
300.044
300.053
300.062
300.072
300.082
300.092
300.103
300.114
300.125
300.137
300.15
300.162
300.176
300.189
300.203
300.218
300.233
300.248
300.264
300.281
300.298
300.315
300.333
300.352
300.371
300.39
300.411
300.431
300.453
300.475
300.498
300.521
300.545
300.57
300.595
300.621
300.648
300.675
300.704
300.733
300.763
300.793
300.825
300.858
300.891
300.925
300.961
300.997
301.034
301.073
301.112
301.153
301.195
301.238
301.282
301.328
301.375
301.424
301.474
301.526
301.58
301.636
301.693
301.753
301.815
301.88
301.948
302.019
302.093
302.172
302.255
302.344
302.44
302.544
302.659
302.785
300.004
300.011
300.019
300.027
300.035
300.044
300.053
300.062
300.072
300.082
300.092
300.103
300.114
300.125
300.137
300.15
300.162
300.176
300.189
300.203
300.218
300.233
300.248
300.264
300.281
300.298
300.315
300.333
300.352
300.371
300.39
300.411
300.431
300.453
300.475
300.498
300.521
300.545
300.569
300.595
300.621
300.648
300.675
300.704
300.733
300.763
300.793
300.825
300.857
300.891
300.925
300.96
300.997
301.034
301.072
301.112
301.152
301.194
301.237
301.282
301.327
301.374
301.423
301.473
301.525
301.578
301.634
301.691
301.75
301.812
301.876
301.943
302.013
302.087
302.164
302.245
302.331
302.423
302.52
302.623
302.731
300.004
300.011
300.019
300.027
300.035
300.044
300.053
300.062
300.072
300.082
300.092
300.103
300.114
300.125
300.137
300.15
300.162
300.176
300.189
300.203
300.218
300.233
300.248
300.264
300.281
300.298
300.315
300.333
300.352
300.371
300.39
300.411
300.431
300.453
300.475
300.497
300.521
300.545
300.569
300.595
300.621
300.647
300.675
300.703
300.732
300.762
300.793
300.824
300.857
300.89
300.925
300.96
300.996
301.033
301.071
301.111
301.151
301.193
301.236
301.28
301.326
301.372
301.421
301.471
301.522
301.575
301.63
301.687
301.746
301.807
301.87
301.936
302.005
302.077
302.152
302.23
302.312
302.398
302.487
302.58
302.673
300.004
300.011
300.019
300.027
300.035
300.044
300.053
300.062
300.072
300.082
300.092
300.103
300.114
300.125
300.137
300.15
300.162
300.176
300.189
300.203
300.218
300.233
300.248
300.264
300.281
300.298
300.315
300.333
300.352
300.371
300.39
300.41
300.431
300.453
300.475
300.497
300.521
300.544
300.569
300.594
300.62
300.647
300.675
300.703
300.732
300.762
300.792
300.824
300.856
300.89
300.924
300.959
300.995
301.032
301.07
301.11
301.15
301.191
301.234
301.278
301.323
301.37
301.418
301.467
301.518
301.571
301.625
301.682
301.74
301.8
301.862
301.927
301.993
302.063
302.135
302.21
302.287
302.367
302.449
302.532
302.614
300.004
300.011
300.019
300.027
300.035
300.044
300.053
300.062
300.072
300.082
300.092
300.103
300.114
300.125
300.137
300.15
300.162
300.176
300.189
300.203
300.218
300.233
300.248
300.264
300.281
300.297
300.315
300.333
300.351
300.37
300.39
300.41
300.431
300.452
300.474
300.497
300.52
300.544
300.569
300.594
300.62
300.647
300.674
300.702
300.731
300.761
300.792
300.823
300.855
300.889
300.923
300.958
300.994
301.031
301.069
301.108
301.148
301.189
301.232
301.275
301.32
301.366
301.414
301.463
301.513
301.565
301.619
301.674
301.731
301.79
301.851
301.913
301.978
302.045
302.114
302.185
302.257
302.331
302.406
302.481
302.555
300.004
300.011
300.019
300.027
300.035
300.044
300.053
300.062
300.072
300.082
300.092
300.103
300.114
300.125
300.137
300.15
300.162
300.176
300.189
300.203
300.218
300.233
300.248
300.264
300.28
300.297
300.315
300.333
300.351
300.37
300.39
300.41
300.431
300.452
300.474
300.497
300.52
300.544
300.568
300.594
300.62
300.646
300.674
300.702
300.731
300.76
300.791
300.822
300.854
300.887
300.921
300.956
300.992
301.029
301.066
301.105
301.145
301.186
301.228
301.271
301.316
301.362
301.409
301.457
301.507
301.558
301.61
301.665
301.72
301.778
301.837
301.897
301.959
302.023
302.088
302.155
302.223
302.291
302.36
302.428
302.495
300.004
300.011
300.019
300.027
300.035
300.044
300.053
300.062
300.072
300.082
300.092
300.103
300.114
300.125
300.137
300.15
300.162
300.175
300.189
300.203
300.218
300.233
300.248
300.264
300.28
300.297
300.315
300.333
300.351
300.37
300.39
300.41
300.431
300.452
300.474
300.496
300.519
300.543
300.568
300.593
300.619
300.645
300.673
300.701
300.73
300.759
300.789
300.821
300.853
300.886
300.919
300.954
300.99
301.026
301.064
301.102
301.142
301.182
301.224
301.267
301.311
301.356
301.402
301.45
301.498
301.549
301.6
301.653
301.707
301.762
301.819
301.878
301.937
301.998
302.059
302.122
302.185
302.248
302.311
302.374
302.435
300.004
300.011
300.019
300.027
300.035
300.044
300.053
300.062
300.071
300.082
300.092
300.103
300.114
300.125
300.137
300.15
300.162
300.175
300.189
300.203
300.218
300.232
300.248
300.264
300.28
300.297
300.314
300.332
300.351
300.37
300.389
300.409
300.43
300.451
300.473
300.496
300.519
300.543
300.567
300.592
300.618
300.644
300.672
300.7
300.728
300.758
300.788
300.819
300.851
300.883
300.917
300.951
300.987
301.023
301.06
301.098
301.137
301.177
301.219
301.261
301.304
301.348
301.394
301.44
301.488
301.537
301.587
301.639
301.691
301.744
301.799
301.855
301.911
301.969
302.027
302.085
302.144
302.203
302.261
302.318
302.375
300.004
300.011
300.019
300.027
300.035
300.044
300.053
300.062
300.071
300.081
300.092
300.103
300.114
300.125
300.137
300.149
300.162
300.175
300.189
300.203
300.217
300.232
300.248
300.264
300.28
300.297
300.314
300.332
300.351
300.369
300.389
300.409
300.43
300.451
300.473
300.495
300.518
300.542
300.566
300.591
300.617
300.643
300.67
300.698
300.727
300.756
300.786
300.817
300.848
300.881
300.914
300.948
300.983
301.019
301.056
301.093
301.132
301.172
301.212
301.254
301.296
301.34
301.384
301.43
301.476
301.524
301.572
301.622
301.672
301.724
301.776
301.829
301.883
301.937
301.991
302.046
302.101
302.155
302.209
302.262
302.314
300.004
300.011
300.019
300.027
300.035
300.044
300.053
300.062
300.071
300.081
300.092
300.103
300.114
300.125
300.137
300.149
300.162
300.175
300.189
300.203
300.217
300.232
300.248
300.263
300.28
300.297
300.314
300.332
300.35
300.369
300.389
300.409
300.429
300.45
300.472
300.494
300.517
300.541
300.565
300.59
300.616
300.642
300.669
300.696
300.725
300.754
300.784
300.814
300.846
300.878
300.911
300.944
300.979
301.014
301.051
301.088
301.126
301.165
301.204
301.245
301.287
301.329
301.372
301.417
301.462
301.508
301.555
301.603
301.651
301.7
301.75
301.8
301.851
301.902
301.953
302.004
302.055
302.106
302.155
302.205
302.253
300.004
300.011
300.019
300.027
300.035
300.044
300.052
300.062
300.071
300.081
300.092
300.102
300.114
300.125
300.137
300.149
300.162
300.175
300.189
300.203
300.217
300.232
300.247
300.263
300.279
300.296
300.314
300.331
300.35
300.369
300.388
300.408
300.428
300.45
300.471
300.493
300.516
300.54
300.564
300.589
300.614
300.64
300.667
300.694
300.722
300.751
300.781
300.811
300.842
300.874
300.906
300.94
300.974
301.009
301.044
301.081
301.118
301.156
301.195
301.235
301.276
301.317
301.359
301.402
301.446
301.49
301.535
301.581
301.627
301.674
301.721
301.769
301.816
301.864
301.912
301.96
302.007
302.054
302.101
302.147
302.191
300.004
300.011
300.019
300.027
300.035
300.043
300.052
300.062
300.071
300.081
300.092
300.102
300.114
300.125
300.137
300.149
300.162
300.175
300.189
300.202
300.217
300.232
300.247
300.263
300.279
300.296
300.313
300.331
300.349
300.368
300.387
300.407
300.428
300.449
300.47
300.492
300.515
300.538
300.562
300.587
300.612
300.638
300.665
300.692
300.72
300.748
300.777
300.807
300.838
300.869
300.901
300.934
300.968
301.002
301.037
301.073
301.109
301.147
301.185
301.223
301.263
301.303
301.344
301.385
301.427
301.47
301.513
301.557
301.601
301.645
301.69
301.735
301.78
301.825
301.87
301.914
301.958
302.002
302.045
302.088
302.129
300.004
300.011
300.019
300.027
300.035
300.043
300.052
300.062
300.071
300.081
300.092
300.102
300.113
300.125
300.137
300.149
300.162
300.175
300.188
300.202
300.217
300.231
300.247
300.263
300.279
300.295
300.313
300.33
300.349
300.367
300.387
300.406
300.427
300.448
300.469
300.491
300.514
300.537
300.561
300.585
300.61
300.636
300.662
300.689
300.716
300.745
300.773
300.803
300.833
300.864
300.896
300.928
300.961
300.994
301.029
301.064
301.099
301.135
301.172
301.21
301.248
301.287
301.326
301.366
301.407
301.447
301.489
301.53
301.572
301.614
301.656
301.699
301.741
301.783
301.825
301.867
301.908
301.949
301.989
302.028
302.067
300.004
300.011
300.019
300.027
300.035
300.043
300.052
300.062
300.071
300.081
300.092
300.102
300.113
300.125
300.137
300.149
300.161
300.175
300.188
300.202
300.216
300.231
300.246
300.262
300.278
300.295
300.312
300.33
300.348
300.366
300.386
300.405
300.425
300.446
300.468
300.489
300.512
300.535
300.558
300.583
300.607
300.633
300.659
300.685
300.712
300.74
300.769
300.798
300.827
300.858
300.889
300.92
300.953
300.985
301.019
301.053
301.088
301.123
301.159
301.195
301.232
301.269
301.307
301.345
301.384
301.423
301.462
301.501
301.541
301.581
301.621
301.66
301.7
301.739
301.779
301.818
301.856
301.894
301.932
301.968
302.005
300.004
300.011
300.019
300.027
300.035
300.043
300.052
300.062
300.071
300.081
300.091
300.102
300.113
300.125
300.136
300.149
300.161
300.174
300.188
300.202
300.216
300.231
300.246
300.262
300.278
300.294
300.311
300.329
300.347
300.365
300.384
300.404
300.424
300.445
300.466
300.488
300.51
300.533
300.556
300.58
300.604
300.629
300.655
300.681
300.708
300.735
300.763
300.792
300.821
300.851
300.881
300.912
300.943
300.975
301.008
301.041
301.075
301.109
301.143
301.178
301.214
301.25
301.286
301.322
301.359
301.396
301.433
301.471
301.508
301.546
301.583
301.62
301.658
301.694
301.731
301.767
301.803
301.839
301.874
301.908
301.942
300.004
300.011
300.019
300.026
300.035
300.043
300.052
300.061
300.071
300.081
300.091
300.102
300.113
300.124
300.136
300.148
300.161
300.174
300.187
300.201
300.215
300.23
300.245
300.261
300.277
300.293
300.31
300.328
300.346
300.364
300.383
300.403
300.422
300.443
300.464
300.485
300.507
300.53
300.553
300.577
300.601
300.625
300.651
300.676
300.703
300.73
300.757
300.785
300.814
300.843
300.872
300.902
300.933
300.964
300.996
301.028
301.06
301.093
301.126
301.16
301.194
301.228
301.263
301.297
301.332
301.368
301.403
301.438
301.473
301.509
301.544
301.579
301.614
301.648
301.683
301.716
301.75
301.783
301.816
301.848
301.879
300.004
300.011
300.019
300.026
300.035
300.043
300.052
300.061
300.071
300.081
300.091
300.102
300.113
300.124
300.136
300.148
300.161
300.174
300.187
300.201
300.215
300.23
300.245
300.26
300.276
300.293
300.309
300.327
300.345
300.363
300.382
300.401
300.421
300.441
300.462
300.483
300.505
300.527
300.55
300.573
300.597
300.621
300.646
300.671
300.697
300.723
300.75
300.777
300.805
300.834
300.862
300.892
300.921
300.951
300.982
301.013
301.044
301.076
301.108
301.14
301.172
301.205
301.238
301.271
301.304
301.337
301.371
301.404
301.437
301.47
301.503
301.536
301.569
301.601
301.633
301.665
301.696
301.727
301.757
301.787
301.817
300.004
300.011
300.018
300.026
300.035
300.043
300.052
300.061
300.071
300.081
300.091
300.102
300.113
300.124
300.136
300.148
300.16
300.173
300.187
300.2
300.214
300.229
300.244
300.259
300.275
300.292
300.308
300.325
300.343
300.361
300.38
300.399
300.418
300.438
300.459
300.48
300.501
300.523
300.546
300.569
300.592
300.616
300.64
300.665
300.69
300.716
300.742
300.769
300.796
300.823
300.851
300.88
300.908
300.937
300.967
300.996
301.026
301.057
301.087
301.118
301.149
301.18
301.211
301.243
301.274
301.306
301.337
301.368
301.399
301.431
301.462
301.492
301.523
301.553
301.583
301.612
301.642
301.67
301.699
301.727
301.754
300.004
300.011
300.018
300.026
300.035
300.043
300.052
300.061
300.071
300.081
300.091
300.101
300.112
300.124
300.135
300.147
300.16
300.173
300.186
300.2
300.214
300.228
300.243
300.258
300.274
300.29
300.307
300.324
300.341
300.359
300.378
300.397
300.416
300.436
300.456
300.477
300.498
300.519
300.541
300.564
300.587
300.61
300.634
300.658
300.683
300.708
300.733
300.759
300.786
300.812
300.839
300.866
300.894
300.922
300.95
300.979
301.008
301.037
301.066
301.095
301.124
301.154
301.184
301.213
301.243
301.272
301.302
301.331
301.361
301.39
301.419
301.448
301.476
301.504
301.532
301.56
301.587
301.614
301.641
301.667
301.692
300.004
300.011
300.018
300.026
300.034
300.043
300.052
300.061
300.071
300.08
300.091
300.101
300.112
300.123
300.135
300.147
300.159
300.172
300.185
300.199
300.213
300.227
300.242
300.257
300.273
300.289
300.305
300.322
300.34
300.357
300.376
300.394
300.413
300.433
300.453
300.473
300.494
300.515
300.536
300.558
300.581
300.604
300.627
300.651
300.675
300.699
300.724
300.749
300.774
300.8
300.826
300.852
300.879
300.906
300.933
300.96
300.987
301.015
301.043
301.071
301.099
301.126
301.154
301.182
301.21
301.238
301.266
301.294
301.321
301.348
301.376
301.402
301.429
301.455
301.482
301.507
301.533
301.558
301.583
301.607
301.631
300.004
300.011
300.018
300.026
300.034
300.043
300.052
300.061
300.07
300.08
300.09
300.101
300.112
300.123
300.134
300.146
300.159
300.171
300.185
300.198
300.212
300.226
300.241
300.256
300.271
300.287
300.304
300.32
300.337
300.355
300.373
300.391
300.41
300.429
300.449
300.469
300.489
300.51
300.531
300.552
300.574
300.597
300.619
300.642
300.665
300.689
300.713
300.737
300.762
300.787
300.812
300.837
300.862
300.888
300.914
300.94
300.966
300.992
301.019
301.045
301.072
301.098
301.124
301.151
301.177
301.203
301.229
301.255
301.281
301.307
301.332
301.357
301.382
301.407
301.431
301.455
301.479
301.502
301.525
301.548
301.57
300.004
300.011
300.018
300.026
300.034
300.043
300.052
300.061
300.07
300.08
300.09
300.1
300.111
300.122
300.134
300.146
300.158
300.171
300.184
300.197
300.211
300.225
300.24
300.255
300.27
300.286
300.302
300.318
300.335
300.352
300.37
300.388
300.406
300.425
300.444
300.464
300.484
300.504
300.525
300.546
300.567
300.589
300.611
300.633
300.656
300.678
300.702
300.725
300.749
300.772
300.796
300.821
300.845
300.87
300.894
300.919
300.944
300.969
300.994
301.019
301.044
301.069
301.093
301.118
301.143
301.168
301.192
301.216
301.24
301.264
301.288
301.312
301.335
301.358
301.381
301.403
301.425
301.447
301.469
301.49
301.511
300.004
300.011
300.018
300.026
300.034
300.043
300.051
300.06
300.07
300.08
300.09
300.1
300.111
300.122
300.133
300.145
300.157
300.17
300.183
300.196
300.21
300.224
300.238
300.253
300.268
300.284
300.299
300.316
300.332
300.349
300.367
300.384
300.403
300.421
300.44
300.459
300.478
300.498
300.518
300.539
300.559
300.58
300.602
300.623
300.645
300.667
300.689
300.712
300.735
300.757
300.78
300.804
300.827
300.85
300.874
300.897
300.921
300.944
300.968
300.992
301.015
301.039
301.062
301.085
301.109
301.132
301.155
301.177
301.2
301.222
301.245
301.267
301.288
301.31
301.331
301.352
301.373
301.393
301.413
301.433
301.453
300.004
300.011
300.018
300.026
300.034
300.042
300.051
300.06
300.07
300.079
300.089
300.1
300.11
300.121
300.133
300.144
300.156
300.169
300.182
300.195
300.208
300.222
300.236
300.251
300.266
300.281
300.297
300.313
300.329
300.346
300.363
300.381
300.398
300.416
300.435
300.453
300.472
300.492
300.511
300.531
300.551
300.571
300.592
300.613
300.634
300.655
300.676
300.698
300.72
300.742
300.764
300.786
300.808
300.83
300.852
300.875
300.897
300.919
300.942
300.964
300.986
301.008
301.03
301.052
301.074
301.096
301.117
301.139
301.16
301.181
301.202
301.222
301.242
301.263
301.282
301.302
301.321
301.34
301.359
301.378
301.396
300.004
300.011
300.018
300.026
300.034
300.042
300.051
300.06
300.069
300.079
300.089
300.099
300.11
300.121
300.132
300.144
300.156
300.168
300.181
300.194
300.207
300.221
300.235
300.249
300.264
300.279
300.294
300.31
300.326
300.343
300.359
300.376
300.394
300.411
300.429
300.447
300.466
300.485
300.503
300.523
300.542
300.562
300.582
300.602
300.622
300.642
300.663
300.684
300.704
300.725
300.746
300.767
300.788
300.81
300.831
300.852
300.873
300.894
300.915
300.936
300.957
300.978
300.999
301.019
301.04
301.06
301.08
301.1
301.12
301.14
301.159
301.179
301.198
301.216
301.235
301.253
301.271
301.289
301.307
301.324
301.341
300.003
300.011
300.018
300.026
300.034
300.042
300.051
300.06
300.069
300.078
300.088
300.098
300.109
300.12
300.131
300.143
300.155
300.167
300.179
300.192
300.205
300.219
300.233
300.247
300.261
300.276
300.291
300.307
300.323
300.339
300.355
300.372
300.389
300.406
300.423
300.441
300.459
300.477
300.495
300.514
300.533
300.552
300.571
300.59
300.61
300.629
300.649
300.669
300.689
300.709
300.729
300.749
300.769
300.789
300.809
300.829
300.849
300.869
300.889
300.909
300.928
300.948
300.968
300.987
301.006
301.025
301.044
301.063
301.082
301.1
301.118
301.136
301.154
301.172
301.189
301.206
301.223
301.24
301.256
301.273
301.289
300.003
300.011
300.018
300.026
300.034
300.042
300.05
300.059
300.068
300.078
300.088
300.098
300.108
300.119
300.13
300.142
300.153
300.165
300.178
300.191
300.204
300.217
300.231
300.245
300.259
300.273
300.288
300.303
300.319
300.335
300.351
300.367
300.383
300.4
300.417
300.434
300.452
300.469
300.487
300.505
300.523
300.542
300.56
300.579
300.597
300.616
300.635
300.654
300.673
300.692
300.711
300.73
300.749
300.768
300.787
300.806
300.825
300.844
300.863
300.882
300.9
300.919
300.937
300.955
300.973
300.991
301.009
301.027
301.044
301.062
301.079
301.096
301.112
301.129
301.145
301.161
301.177
301.193
301.208
301.223
301.238
300.003
300.01
300.018
300.025
300.033
300.042
300.05
300.059
300.068
300.077
300.087
300.097
300.108
300.118
300.129
300.141
300.152
300.164
300.176
300.189
300.202
300.215
300.228
300.242
300.256
300.27
300.285
300.3
300.315
300.33
300.346
300.362
300.378
300.394
300.411
300.427
300.444
300.461
300.479
300.496
300.513
300.531
300.549
300.567
300.585
300.603
300.621
300.639
300.657
300.675
300.693
300.711
300.73
300.748
300.766
300.784
300.802
300.82
300.837
300.855
300.873
300.89
300.908
300.925
300.942
300.959
300.975
300.992
301.008
301.025
301.041
301.057
301.072
301.088
301.103
301.118
301.133
301.148
301.162
301.177
301.191
300.003
300.01
300.018
300.025
300.033
300.041
300.05
300.058
300.067
300.077
300.086
300.096
300.107
300.117
300.128
300.139
300.151
300.163
300.175
300.187
300.2
300.213
300.226
300.24
300.253
300.267
300.282
300.296
300.311
300.326
300.341
300.357
300.372
300.388
300.404
300.42
300.437
300.453
300.47
300.487
300.504
300.521
300.538
300.555
300.572
300.589
300.607
300.624
300.641
300.659
300.676
300.693
300.711
300.728
300.745
300.762
300.779
300.796
300.813
300.83
300.846
300.863
300.879
300.896
300.912
300.928
300.943
300.959
300.975
300.99
301.005
301.02
301.035
301.049
301.064
301.078
301.092
301.106
301.12
301.133
301.146
300.003
300.01
300.018
300.025
300.033
300.041
300.049
300.058
300.067
300.076
300.086
300.096
300.106
300.116
300.127
300.138
300.15
300.161
300.173
300.185
300.198
300.211
300.224
300.237
300.25
300.264
300.278
300.292
300.307
300.322
300.336
300.352
300.367
300.382
300.398
300.414
300.429
300.445
300.461
300.478
300.494
300.51
300.527
300.543
300.56
300.576
300.593
300.61
300.626
300.643
300.659
300.676
300.692
300.709
300.725
300.742
300.758
300.774
300.79
300.806
300.822
300.837
300.853
300.868
300.883
300.899
300.914
300.928
300.943
300.958
300.972
300.986
301
301.014
301.027
301.041
301.054
301.067
301.08
301.093
301.106
300.003
300.01
300.017
300.025
300.033
300.041
300.049
300.058
300.066
300.076
300.085
300.095
300.105
300.115
300.126
300.137
300.148
300.16
300.171
300.183
300.196
300.208
300.221
300.234
300.247
300.261
300.275
300.289
300.303
300.317
300.332
300.346
300.361
300.376
300.391
300.407
300.422
300.438
300.453
300.469
300.485
300.501
300.516
300.532
300.548
300.564
300.58
300.596
300.612
300.628
300.644
300.66
300.675
300.691
300.707
300.722
300.738
300.753
300.768
300.784
300.799
300.813
300.828
300.843
300.857
300.872
300.886
300.9
300.914
300.928
300.941
300.955
300.968
300.981
300.994
301.007
301.02
301.032
301.044
301.056
301.068
300.003
300.01
300.017
300.025
300.032
300.04
300.049
300.057
300.066
300.075
300.084
300.094
300.104
300.114
300.125
300.136
300.147
300.158
300.17
300.182
300.194
300.206
300.219
300.232
300.245
300.258
300.271
300.285
300.299
300.313
300.327
300.341
300.356
300.371
300.385
300.4
300.415
300.43
300.445
300.461
300.476
300.491
300.507
300.522
300.537
300.553
300.568
300.583
300.599
300.614
300.629
300.645
300.66
300.675
300.69
300.705
300.719
300.734
300.749
300.763
300.778
300.792
300.806
300.82
300.834
300.848
300.861
300.875
300.888
300.901
300.914
300.927
300.94
300.952
300.964
300.977
300.989
301.001
301.012
301.024
301.035
300.003
300.01
300.017
300.025
300.032
300.04
300.048
300.057
300.065
300.074
300.084
300.093
300.103
300.113
300.124
300.134
300.145
300.157
300.168
300.18
300.192
300.204
300.216
300.229
300.242
300.255
300.268
300.282
300.295
300.309
300.323
300.337
300.351
300.365
300.38
300.394
300.409
300.423
300.438
300.453
300.468
300.483
300.498
300.512
300.527
300.542
300.557
300.572
300.587
300.602
300.616
300.631
300.646
300.66
300.675
300.689
300.703
300.717
300.731
300.745
300.759
300.773
300.786
300.8
300.813
300.826
300.839
300.852
300.865
300.878
300.89
300.902
300.915
300.927
300.938
300.95
300.962
300.973
300.984
300.995
301.006
300.003
300.01
300.017
300.024
300.032
300.04
300.048
300.056
300.065
300.074
300.083
300.093
300.102
300.112
300.123
300.133
300.144
300.155
300.167
300.178
300.19
300.202
300.214
300.227
300.239
300.252
300.265
300.278
300.292
300.305
300.319
300.333
300.347
300.361
300.375
300.389
300.403
300.417
300.432
300.446
300.461
300.475
300.49
300.504
300.519
300.533
300.548
300.562
300.576
300.591
300.605
300.619
300.633
300.647
300.661
300.675
300.689
300.703
300.716
300.73
300.743
300.757
300.77
300.783
300.796
300.808
300.821
300.833
300.846
300.858
300.87
300.882
300.893
300.905
300.916
300.928
300.939
300.95
300.961
300.971
300.982
300.003
300.01
300.017
300.024
300.032
300.039
300.047
300.056
300.064
300.073
300.082
300.092
300.102
300.112
300.122
300.132
300.143
300.154
300.165
300.177
300.188
300.2
300.212
300.225
300.237
300.25
300.263
300.276
300.289
300.302
300.315
300.329
300.343
300.356
300.37
300.384
300.398
300.412
300.426
300.44
300.455
300.469
300.483
300.497
300.511
300.525
300.54
300.554
300.568
300.582
300.596
300.609
300.623
300.637
300.651
300.664
300.678
300.691
300.704
300.717
300.73
300.743
300.756
300.769
300.781
300.793
300.806
300.818
300.83
300.842
300.853
300.865
300.876
300.887
300.898
300.909
300.92
300.931
300.941
300.952
300.962
300.003
300.01
300.017
300.024
300.031
300.039
300.047
300.055
300.064
300.073
300.082
300.091
300.101
300.111
300.121
300.131
300.142
300.153
300.164
300.175
300.187
300.199
300.211
300.223
300.235
300.248
300.26
300.273
300.286
300.299
300.313
300.326
300.339
300.353
300.367
300.38
300.394
300.408
300.422
300.436
300.45
300.464
300.478
300.492
300.505
300.519
300.533
300.547
300.561
300.575
300.588
300.602
300.615
300.629
300.642
300.655
300.669
300.682
300.695
300.707
300.72
300.733
300.745
300.758
300.77
300.782
300.794
300.806
300.817
300.829
300.84
300.852
300.863
300.874
300.885
300.895
300.906
300.916
300.927
300.937
300.947
300.003
300.01
300.017
300.024
300.031
300.039
300.047
300.055
300.064
300.072
300.081
300.091
300.1
300.11
300.12
300.131
300.141
300.152
300.163
300.174
300.186
300.197
300.209
300.221
300.234
300.246
300.259
300.271
300.284
300.297
300.31
300.324
300.337
300.35
300.364
300.378
300.391
300.405
300.419
300.432
300.446
300.46
300.474
300.487
300.501
300.515
300.529
300.542
300.556
300.569
300.583
300.596
300.61
300.623
300.636
300.649
300.662
300.675
300.688
300.7
300.713
300.725
300.738
300.75
300.762
300.774
300.786
300.797
300.809
300.82
300.831
300.843
300.854
300.864
300.875
300.886
300.896
300.906
300.916
300.926
300.936
300.003
300.01
300.017
300.024
300.031
300.039
300.047
300.055
300.063
300.072
300.081
300.09
300.1
300.11
300.12
300.13
300.141
300.151
300.162
300.174
300.185
300.197
300.208
300.22
300.233
300.245
300.258
300.27
300.283
300.296
300.309
300.322
300.335
300.349
300.362
300.376
300.389
300.403
300.416
300.43
300.444
300.457
300.471
300.485
300.498
300.512
300.526
300.539
300.553
300.566
300.579
300.593
300.606
300.619
300.632
300.645
300.658
300.671
300.683
300.696
300.708
300.721
300.733
300.745
300.757
300.769
300.78
300.792
300.803
300.815
300.826
300.837
300.848
300.858
300.869
300.88
300.89
300.9
300.91
300.92
300.93
300.003
300.01
300.017
300.024
300.031
300.039
300.047
300.055
300.063
300.072
300.081
300.09
300.1
300.109
300.119
300.13
300.14
300.151
300.162
300.173
300.185
300.196
300.208
300.22
300.232
300.244
300.257
300.27
300.282
300.295
300.308
300.321
300.335
300.348
300.361
300.375
300.388
300.402
300.415
300.429
300.443
300.456
300.47
300.483
300.497
300.511
300.524
300.538
300.551
300.564
300.578
300.591
300.604
300.617
300.63
300.643
300.656
300.669
300.681
300.694
300.706
300.718
300.731
300.743
300.755
300.766
300.778
300.79
300.801
300.812
300.823
300.834
300.845
300.856
300.866
300.877
300.887
300.897
300.907
300.917
300.927
300.003
300.01
300.017
300.024
300.031
300.039
300.047
300.055
300.063
300.072
300.081
300.09
300.1
300.109
300.119
300.13
300.14
300.151
300.162
300.173
300.184
300.196
300.208
300.22
300.232
300.244
300.257
300.269
300.282
300.295
300.308
300.321
300.334
300.348
300.361
300.374
300.388
300.401
300.415
300.429
300.442
300.456
300.469
300.483
300.497
300.51
300.524
300.537
300.551
300.564
300.577
300.59
300.604
300.617
300.63
300.643
300.655
300.668
300.681
300.693
300.706
300.718
300.73
300.742
300.754
300.766
300.777
300.789
300.8
300.811
300.823
300.834
300.844
300.855
300.866
300.876
300.886
300.896
300.906
300.916
300.926
303.022
303.151
303.229
303.301
303.364
303.416
303.451
303.49
303.53
303.567
303.599
303.633
303.668
303.702
303.735
303.768
303.799
303.827
303.857
303.886
303.915
303.945
303.974
304.003
304.032
304.061
304.089
304.117
304.144
304.171
304.198
304.225
304.251
304.278
304.304
304.329
304.355
304.38
304.405
304.43
304.455
304.478
304.504
304.531
304.557
304.583
304.606
304.631
304.657
304.683
304.707
304.73
304.754
304.779
304.804
304.83
304.856
304.881
304.907
304.931
304.952
304.975
304.998
305.023
305.048
305.072
305.097
305.121
305.146
305.17
305.194
305.218
305.241
305.265
305.288
305.312
305.335
305.359
305.381
305.406
305.434
305.46
305.484
305.507
305.528
305.549
305.574
305.601
305.626
305.648
305.668
305.693
305.72
305.742
305.768
305.795
305.82
305.842
305.869
305.893
305.915
305.94
305.961
305.986
306.012
306.04
306.065
306.085
306.11
306.131
306.155
306.181
306.208
306.236
306.261
306.281
306.305
306.331
306.358
306.381
306.399
306.422
306.446
306.47
306.494
306.511
306.532
306.553
306.575
306.596
306.617
306.636
306.655
306.672
306.688
306.703
306.717
306.729
306.74
306.749
306.756
306.761
306.765
306.766
306.765
306.762
306.756
306.747
306.735
306.719
306.697
306.672
306.645
306.612
306.575
306.53
306.481
306.395
306.316
306.216
306.084
302.921
303.035
303.123
303.198
303.263
303.318
303.365
303.408
303.45
303.489
303.526
303.562
303.598
303.633
303.667
303.701
303.733
303.763
303.794
303.824
303.854
303.884
303.914
303.944
303.973
304.002
304.031
304.059
304.087
304.115
304.142
304.169
304.196
304.223
304.249
304.275
304.301
304.327
304.352
304.378
304.403
304.428
304.453
304.48
304.506
304.531
304.556
304.581
304.607
304.632
304.657
304.681
304.705
304.73
304.756
304.782
304.807
304.833
304.858
304.882
304.905
304.928
304.952
304.977
305.001
305.026
305.051
305.076
305.1
305.125
305.149
305.173
305.197
305.221
305.244
305.268
305.292
305.316
305.339
305.364
305.391
305.417
305.441
305.464
305.486
305.509
305.533
305.559
305.584
305.607
305.629
305.653
305.679
305.703
305.728
305.755
305.78
305.804
305.83
305.854
305.877
305.902
305.924
305.949
305.975
306.003
306.028
306.049
306.074
306.096
306.12
306.146
306.173
306.201
306.225
306.247
306.271
306.297
306.323
306.347
306.367
306.39
306.414
306.438
306.461
306.48
306.501
306.523
306.545
306.566
306.587
306.606
306.625
306.642
306.659
306.674
306.688
306.7
306.711
306.721
306.728
306.734
306.738
306.739
306.738
306.735
306.729
306.72
306.708
306.691
306.67
306.645
306.617
306.584
306.545
306.499
306.446
306.363
306.28
306.174
306.03
302.839
302.938
303.024
303.099
303.166
303.224
303.275
303.323
303.367
303.409
303.448
303.487
303.524
303.56
303.596
303.63
303.663
303.695
303.727
303.758
303.789
303.82
303.851
303.881
303.911
303.94
303.969
303.998
304.026
304.055
304.082
304.11
304.137
304.164
304.191
304.218
304.244
304.27
304.296
304.322
304.347
304.373
304.399
304.425
304.451