/*--------------------------------*- C++ -*----------------------------------*\
| =========                 |                                                 |
| \\      /  F ield         | OpenFOAM: The Open Source CFD Toolbox           |
|  \\    /   O peration     | Version:  2106                                  |
|   \\  /    A nd           | Website:  www.openfoam.com                      |
|    \\/     M anipulation  |                                                 |
\*---------------------------------------------------------------------------*/
FoamFile
{
    version     2.0;
    format      ascii;
    arch        "LSB;label=32;scalar=64";
    class       volVectorField;
    location    "8.8";
    object      U;
}
// * * * * * * * * * * * * * * * * * * * * * * * * * * * * * * * * * * * * * //

dimensions      [0 1 -1 0 0 0 0];

internalField   nonuniform List<vector> 
12013
(
(0.100039 -1.1002e-05 0)
(0.100201 -2.0372e-05 0)
(0.100463 -2.9085e-05 0)
(0.100802 -3.71399e-05 0)
(0.101212 -4.47238e-05 0)
(0.101685 -5.19415e-05 0)
(0.102217 -5.88599e-05 0)
(0.102801 -6.55322e-05 0)
(0.103434 -7.19985e-05 0)
(0.104112 -7.82899e-05 0)
(0.104831 -8.44317e-05 0)
(0.105589 -9.04439e-05 0)
(0.106381 -9.63428e-05 0)
(0.107207 -0.000102141 0)
(0.108063 -0.000107851 0)
(0.108947 -0.000113479 0)
(0.109857 -0.000119033 0)
(0.110792 -0.000124518 0)
(0.111749 -0.000129939 0)
(0.112727 -0.000135297 0)
(0.113724 -0.000140594 0)
(0.114738 -0.000145831 0)
(0.115769 -0.000151009 0)
(0.116814 -0.000156125 0)
(0.117873 -0.000161179 0)
(0.118943 -0.000166167 0)
(0.120024 -0.000171088 0)
(0.121114 -0.000175937 0)
(0.122213 -0.000180711 0)
(0.123318 -0.000185403 0)
(0.12443 -0.000190009 0)
(0.125545 -0.000194521 0)
(0.126664 -0.000198934 0)
(0.127786 -0.000203238 0)
(0.128909 -0.000207426 0)
(0.130031 -0.000211487 0)
(0.131153 -0.000215411 0)
(0.132273 -0.000219187 0)
(0.133389 -0.0002228 0)
(0.134501 -0.000226237 0)
(0.135608 -0.000229482 0)
(0.136708 -0.000232516 0)
(0.1378 -0.00023532 0)
(0.138883 -0.000237872 0)
(0.139956 -0.000240147 0)
(0.141018 -0.000242118 0)
(0.142067 -0.000243751 0)
(0.143102 -0.000245013 0)
(0.144121 -0.000245862 0)
(0.145124 -0.000246253 0)
(0.146108 -0.000246131 0)
(0.147072 -0.000245436 0)
(0.148014 -0.000244097 0)
(0.148932 -0.000242032 0)
(0.149824 -0.000239143 0)
(0.150687 -0.000235317 0)
(0.151519 -0.000230419 0)
(0.152317 -0.000224288 0)
(0.153077 -0.00021673 0)
(0.153797 -0.000207509 0)
(0.15447 -0.000196339 0)
(0.155094 -0.000182863 0)
(0.155661 -0.000166639 0)
(0.156164 -0.000147107 0)
(0.156596 -0.000123551 0)
(0.156947 -9.50474e-05 0)
(0.157203 -6.03789e-05 0)
(0.15735 -1.79213e-05 0)
(0.157369 3.45472e-05 0)
(0.157235 0.000100181 0)
(0.156915 0.000183499 0)
(0.156366 0.000291147 0)
(0.155527 0.000433219 0)
(0.154314 0.000625551 0)
(0.152604 0.000893867 0)
(0.150209 0.00128144 0)
(0.146844 0.00186384 0)
(0.142028 0.00278117 0)
(0.134958 0.00433699 0)
(0.124518 0.00742692 0)
(0.112527 0.0162775 0)
(0.100036 -3.35922e-05 0)
(0.100197 -6.24596e-05 0)
(0.100458 -8.92187e-05 0)
(0.100796 -0.000113939 0)
(0.101205 -0.000137214 0)
(0.101678 -0.000159364 0)
(0.102208 -0.000180593 0)
(0.102792 -0.000201064 0)
(0.103424 -0.000220902 0)
(0.1041 -0.000240203 0)
(0.104818 -0.000259044 0)
(0.105575 -0.000277485 0)
(0.106366 -0.000295578 0)
(0.107191 -0.000313363 0)
(0.108045 -0.000330872 0)
(0.108928 -0.000348132 0)
(0.109837 -0.000365163 0)
(0.110771 -0.000381982 0)
(0.111727 -0.000398601 0)
(0.112703 -0.000415028 0)
(0.113699 -0.000431268 0)
(0.114712 -0.000447323 0)
(0.115741 -0.000463193 0)
(0.116784 -0.000478875 0)
(0.117841 -0.000494364 0)
(0.11891 -0.000509653 0)
(0.119989 -0.000524733 0)
(0.121078 -0.000539592 0)
(0.122174 -0.000554218 0)
(0.123278 -0.000568594 0)
(0.124387 -0.000582704 0)
(0.125501 -0.000596528 0)
(0.126618 -0.000610043 0)
(0.127738 -0.000623228 0)
(0.128858 -0.000636052 0)
(0.129979 -0.000648489 0)
(0.131098 -0.000660504 0)
(0.132216 -0.000672063 0)
(0.13333 -0.000683124 0)
(0.134439 -0.000693643 0)
(0.135544 -0.000703573 0)
(0.136641 -0.000712857 0)
(0.137731 -0.000721436 0)
(0.138812 -0.000729242 0)
(0.139882 -0.000736199 0)
(0.140941 -0.000742222 0)
(0.141988 -0.000747214 0)
(0.14302 -0.000751066 0)
(0.144037 -0.000753655 0)
(0.145037 -0.000754839 0)
(0.146018 -0.000754457 0)
(0.14698 -0.000752321 0)
(0.147919 -0.000748215 0)
(0.148834 -0.000741889 0)
(0.149723 -0.000733047 0)
(0.150584 -0.000721343 0)
(0.151414 -0.000706368 0)
(0.15221 -0.00068763 0)
(0.152969 -0.000664542 0)
(0.153687 -0.000636391 0)
(0.154361 -0.000602307 0)
(0.154984 -0.000561214 0)
(0.155552 -0.000511776 0)
(0.156058 -0.000452308 0)
(0.156494 -0.000380663 0)
(0.15685 -0.000294072 0)
(0.157116 -0.000188907 0)
(0.157276 -6.03459e-05 0)
(0.157314 9.81414e-05 0)
(0.157207 0.000295681 0)
(0.156927 0.000545223 0)
(0.156437 0.000865563 0)
(0.155688 0.0012847 0)
(0.154614 0.0018455 0)
(0.153127 0.00261533 0)
(0.151104 0.00370267 0)
(0.148383 0.00528503 0)
(0.144737 0.00765569 0)
(0.139892 0.0113035 0)
(0.133861 0.0169542 0)
(0.128972 0.0250169 0)
(0.100033 -5.70967e-05 0)
(0.100192 -0.000107135 0)
(0.100451 -0.000153224 0)
(0.100787 -0.000195787 0)
(0.101193 -0.000235854 0)
(0.101664 -0.000273976 0)
(0.102192 -0.000310508 0)
(0.102774 -0.000345733 0)
(0.103404 -0.000379865 0)
(0.104078 -0.000413071 0)
(0.104794 -0.000445481 0)
(0.105548 -0.000477204 0)
(0.106337 -0.000508324 0)
(0.107159 -0.000538913 0)
(0.108011 -0.000569025 0)
(0.108892 -0.000598707 0)
(0.109798 -0.000627994 0)
(0.110729 -0.000656914 0)
(0.111682 -0.000685488 0)
(0.112655 -0.000713729 0)
(0.113648 -0.000741647 0)
(0.114658 -0.000769245 0)
(0.115684 -0.000796523 0)
(0.116724 -0.000823476 0)
(0.117778 -0.000850095 0)
(0.118843 -0.000876367 0)
(0.119919 -0.000902278 0)
(0.121004 -0.000927807 0)
(0.122097 -0.000952931 0)
(0.123197 -0.000977624 0)
(0.124302 -0.00100186 0)
(0.125412 -0.0010256 0)
(0.126525 -0.0010488 0)
(0.12764 -0.00107143 0)
(0.128757 -0.00109345 0)
(0.129873 -0.00111479 0)
(0.130988 -0.00113541 0)
(0.132101 -0.00115523 0)
(0.13321 -0.0011742 0)
(0.134315 -0.00119224 0)
(0.135414 -0.00120926 0)
(0.136507 -0.00122516 0)
(0.137591 -0.00123986 0)
(0.138667 -0.00125322 0)
(0.139732 -0.00126512 0)
(0.140786 -0.00127542 0)
(0.141827 -0.00128394 0)
(0.142854 -0.00129051 0)
(0.143865 -0.00129491 0)
(0.14486 -0.00129689 0)
(0.145836 -0.0012962 0)
(0.146792 -0.0012925 0)
(0.147726 -0.00128542 0)
(0.148636 -0.00127456 0)
(0.14952 -0.00125939 0)
(0.150376 -0.00123935 0)
(0.151202 -0.00121373 0)
(0.151993 -0.00118171 0)
(0.152749 -0.0011423 0)
(0.153464 -0.00109431 0)
(0.154136 -0.00103629 0)
(0.154759 -0.000966449 0)
(0.155328 -0.000882574 0)
(0.155837 -0.000781892 0)
(0.156279 -0.000660893 0)
(0.156645 -0.000515077 0)
(0.156926 -0.000338606 0)
(0.157109 -0.000123803 0)
(0.15718 0.000139561 0)
(0.15712 0.000465475 0)
(0.156908 0.000873357 0)
(0.156518 0.00139061 0)
(0.155915 0.00205658 0)
(0.155063 0.00292874 0)
(0.153916 0.00409217 0)
(0.15243 0.0056736 0)
(0.150571 0.00786011 0)
(0.148346 0.0109186 0)
(0.145868 0.0152005 0)
(0.143572 0.0210156 0)
(0.142742 0.0278504 0)
(0.10003 -8.13125e-05 0)
(0.100187 -0.000154276 0)
(0.100441 -0.000221028 0)
(0.100774 -0.000282709 0)
(0.101177 -0.000340748 0)
(0.101645 -0.000395951 0)
(0.10217 -0.000448843 0)
(0.102748 -0.000499834 0)
(0.103375 -0.000549236 0)
(0.104046 -0.000597291 0)
(0.104758 -0.00064419 0)
(0.105508 -0.000690089 0)
(0.106294 -0.000735112 0)
(0.107112 -0.00077936 0)
(0.10796 -0.000822916 0)
(0.108837 -0.000865846 0)
(0.109739 -0.0009082 0)
(0.110666 -0.000950018 0)
(0.111614 -0.000991331 0)
(0.112584 -0.00103216 0)
(0.113572 -0.00107252 0)
(0.114577 -0.00111241 0)
(0.115598 -0.00115183 0)
(0.116633 -0.00119077 0)
(0.117682 -0.00122923 0)
(0.118742 -0.00126719 0)
(0.119812 -0.00130461 0)
(0.120892 -0.00134148 0)
(0.121979 -0.00137776 0)
(0.123073 -0.00141341 0)
(0.124173 -0.00144839 0)
(0.125276 -0.00148264 0)
(0.126383 -0.00151612 0)
(0.127492 -0.00154877 0)
(0.128602 -0.00158052 0)
(0.129711 -0.00161129 0)
(0.13082 -0.001641 0)
(0.131925 -0.00166956 0)
(0.133028 -0.00169688 0)
(0.134125 -0.00172285 0)
(0.135217 -0.00174734 0)
(0.136302 -0.00177022 0)
(0.137379 -0.00179134 0)
(0.138447 -0.00181053 0)
(0.139505 -0.00182761 0)
(0.140551 -0.00184236 0)
(0.141584 -0.00185456 0)
(0.142602 -0.00186393 0)
(0.143606 -0.00187017 0)
(0.144592 -0.00187295 0)
(0.14556 -0.00187185 0)
(0.146508 -0.00186644 0)
(0.147434 -0.0018562 0)
(0.148337 -0.00184051 0)
(0.149213 -0.00181867 0)
(0.150062 -0.00178986 0)
(0.150881 -0.00175311 0)
(0.151668 -0.00170725 0)
(0.152418 -0.00165092 0)
(0.15313 -0.00158245 0)
(0.153799 -0.00149983 0)
(0.154422 -0.00140062 0)
(0.154993 -0.00128179 0)
(0.155508 -0.0011396 0)
(0.15596 -0.000969333 0)
(0.156342 -0.000765027 0)
(0.156646 -0.000519044 0)
(0.156863 -0.000221507 0)
(0.156982 0.000140464 0)
(0.15699 0.000583963 0)
(0.156874 0.00113198 0)
(0.156618 0.00181575 0)
(0.156209 0.00267796 0)
(0.155634 0.00377724 0)
(0.154889 0.00519382 0)
(0.153987 0.00703585 0)
(0.152977 0.00944288 0)
(0.151973 0.0125773 0)
(0.151199 0.01658 0)
(0.151047 0.0214175 0)
(0.152081 0.0264409 0)
(0.100027 -0.000106247 0)
(0.10018 -0.000203792 0)
(0.100431 -0.000292588 0)
(0.100759 -0.000374729 0)
(0.101158 -0.000451992 0)
(0.101621 -0.000525453 0)
(0.102141 -0.000595821 0)
(0.102715 -0.000663647 0)
(0.103337 -0.000729347 0)
(0.104003 -0.000793245 0)
(0.104711 -0.000855597 0)
(0.105456 -0.000916609 0)
(0.106237 -0.00097645 0)
(0.10705 -0.00103525 0)
(0.107893 -0.00109313 0)
(0.108764 -0.00115016 0)
(0.10966 -0.00120642 0)
(0.110581 -0.00126197 0)
(0.111524 -0.00131683 0)
(0.112487 -0.00137104 0)
(0.113469 -0.00142462 0)
(0.114468 -0.00147756 0)
(0.115482 -0.00152988 0)
(0.116511 -0.00158156 0)
(0.117552 -0.00163259 0)
(0.118605 -0.00168293 0)
(0.119668 -0.00173256 0)
(0.12074 -0.00178144 0)
(0.12182 -0.00182953 0)
(0.122906 -0.00187678 0)
(0.123998 -0.00192312 0)
(0.125093 -0.0019685 0)
(0.126192 -0.00201283 0)
(0.127292 -0.00205605 0)
(0.128393 -0.00209806 0)
(0.129493 -0.00213876 0)
(0.130592 -0.00217805 0)
(0.131689 -0.00221581 0)
(0.132782 -0.0022519 0)
(0.13387 -0.00228618 0)
(0.134952 -0.0023185 0)
(0.136027 -0.00234867 0)
(0.137094 -0.0023765 0)
(0.138151 -0.00240176 0)
(0.139198 -0.00242421 0)
(0.140234 -0.00244359 0)
(0.141256 -0.00245956 0)
(0.142264 -0.0024718 0)
(0.143257 -0.0024799 0)
(0.144233 -0.00248342 0)
(0.145191 -0.00248184 0)
(0.146128 -0.00247458 0)
(0.147044 -0.00246096 0)
(0.147937 -0.00244021 0)
(0.148804 -0.00241142 0)
(0.149645 -0.00237352 0)
(0.150456 -0.00232529 0)
(0.151235 -0.00226526 0)
(0.15198 -0.00219167 0)
(0.152688 -0.00210247 0)
(0.153355 -0.00199514 0)
(0.153978 -0.00186667 0)
(0.154554 -0.00171335 0)
(0.155078 -0.00153064 0)
(0.155544 -0.00131294 0)
(0.155949 -0.00105321 0)
(0.156285 -0.000742649 0)
(0.156547 -0.000370069 0)
(0.156729 7.87425e-05 0)
(0.156823 0.000621705 0)
(0.156824 0.00128229 0)
(0.15673 0.00209081 0)
(0.156539 0.00308623 0)
(0.156262 0.00431826 0)
(0.155919 0.00584886 0)
(0.155556 0.00775189 0)
(0.155252 0.0101074 0)
(0.155137 0.012983 0)
(0.155406 0.0163887 0)
(0.156312 0.0201786 0)
(0.158082 0.0238795 0)
(0.100024 -0.000131912 0)
(0.100174 -0.000255602 0)
(0.100419 -0.000367855 0)
(0.100742 -0.000471838 0)
(0.101135 -0.000569638 0)
(0.101592 -0.000662595 0)
(0.102107 -0.000751617 0)
(0.102675 -0.000837403 0)
(0.103291 -0.000920482 0)
(0.103951 -0.00100127 0)
(0.104653 -0.00108008 0)
(0.105392 -0.00115719 0)
(0.106166 -0.0012328 0)
(0.106972 -0.00130709 0)
(0.107808 -0.00138019 0)
(0.108672 -0.00145221 0)
(0.109562 -0.00152325 0)
(0.110475 -0.00159337 0)
(0.11141 -0.00166262 0)
(0.112365 -0.00173104 0)
(0.113339 -0.00179863 0)
(0.11433 -0.00186543 0)
(0.115336 -0.00193141 0)
(0.116356 -0.00199657 0)
(0.117389 -0.0020609 0)
(0.118433 -0.00212435 0)
(0.119486 -0.00218688 0)
(0.120549 -0.00224846 0)
(0.121619 -0.00230902 0)
(0.122695 -0.0023685 0)
(0.123776 -0.00242682 0)
(0.124861 -0.00248391 0)
(0.125949 -0.00253967 0)
(0.127039 -0.002594 0)
(0.128129 -0.00264679 0)
(0.129218 -0.00269792 0)
(0.130305 -0.00274725 0)
(0.13139 -0.00279462 0)
(0.132471 -0.00283989 0)
(0.133547 -0.00288286 0)
(0.134617 -0.00292333 0)
(0.135679 -0.00296108 0)
(0.136734 -0.00299587 0)
(0.137778 -0.00302742 0)
(0.138813 -0.00305543 0)
(0.139835 -0.00307955 0)
(0.140845 -0.0030994 0)
(0.14184 -0.00311455 0)
(0.14282 -0.00312451 0)
(0.143783 -0.00312874 0)
(0.144728 -0.0031266 0)
(0.145653 -0.00311738 0)
(0.146557 -0.00310025 0)
(0.147438 -0.00307428 0)
(0.148295 -0.00303836 0)
(0.149125 -0.00299124 0)
(0.149927 -0.00293142 0)
(0.150699 -0.00285717 0)
(0.151438 -0.00276644 0)
(0.152142 -0.0026568 0)
(0.152809 -0.00252536 0)
(0.153435 -0.00236866 0)
(0.154017 -0.00218251 0)
(0.154553 -0.00196187 0)
(0.155039 -0.00170057 0)
(0.155472 -0.00139109 0)
(0.155849 -0.00102416 0)
(0.156166 -0.000588385 0)
(0.156422 -6.96977e-05 0)
(0.156616 0.000548898 0)
(0.156748 0.00128838 0)
(0.156824 0.00217448 0)
(0.156856 0.00323803 0)
(0.156864 0.004515 0)
(0.156883 0.00604528 0)
(0.156964 0.00786919 0)
(0.157186 0.0100195 0)
(0.157655 0.0125052 0)
(0.158504 0.0152828 0)
(0.159873 0.0182105 0)
(0.161839 0.0209954 0)
(0.100021 -0.000158319 0)
(0.100167 -0.00030964 0)
(0.100407 -0.000446775 0)
(0.100723 -0.00057401 0)
(0.10111 -0.000693705 0)
(0.10156 -0.00080745 0)
(0.102068 -0.000916357 0)
(0.102629 -0.00102128 0)
(0.103238 -0.00112287 0)
(0.103891 -0.00122163 0)
(0.104584 -0.00131796 0)
(0.105316 -0.00141218 0)
(0.106082 -0.00150455 0)
(0.10688 -0.00159529 0)
(0.107708 -0.00168456 0)
(0.108563 -0.00177251 0)
(0.109444 -0.00185922 0)
(0.110348 -0.00194479 0)
(0.111274 -0.00202929 0)
(0.112219 -0.00211274 0)
(0.113183 -0.00219518 0)
(0.114164 -0.00227662 0)
(0.11516 -0.00235705 0)
(0.116169 -0.00243646 0)
(0.117191 -0.00251482 0)
(0.118224 -0.0025921 0)
(0.119266 -0.00266824 0)
(0.120317 -0.00274319 0)
(0.121376 -0.00281688 0)
(0.12244 -0.00288923 0)
(0.123509 -0.00296014 0)
(0.124581 -0.00302953 0)
(0.125656 -0.00309727 0)
(0.126732 -0.00316325 0)
(0.127809 -0.00322732 0)
(0.128885 -0.00328934 0)
(0.129958 -0.00334915 0)
(0.131029 -0.00340655 0)
(0.132096 -0.00346136 0)
(0.133157 -0.00351335 0)
(0.134212 -0.00356229 0)
(0.13526 -0.00360789 0)
(0.136299 -0.00364987 0)
(0.137329 -0.0036879 0)
(0.138348 -0.00372161 0)
(0.139356 -0.0037506 0)
(0.14035 -0.0037744 0)
(0.14133 -0.00379252 0)
(0.142295 -0.00380436 0)
(0.143243 -0.00380928 0)
(0.144174 -0.00380655 0)
(0.145085 -0.00379533 0)
(0.145975 -0.00377465 0)
(0.146843 -0.00374344 0)
(0.147688 -0.00370043 0)
(0.148508 -0.00364416 0)
(0.1493 -0.00357297 0)
(0.150064 -0.00348489 0)
(0.150797 -0.00337763 0)
(0.151498 -0.00324854 0)
(0.152165 -0.00309444 0)
(0.152796 -0.00291162 0)
(0.153388 -0.00269566 0)
(0.15394 -0.00244131 0)
(0.154451 -0.00214231 0)
(0.154918 -0.0017912 0)
(0.155341 -0.00137905 0)
(0.155721 -0.000895226 0)
(0.156057 -0.000327127 0)
(0.156356 0.000340045 0)
(0.156621 0.00112277 0)
(0.156865 0.0020403 0)
(0.157104 0.00311378 0)
(0.157363 0.00436512 0)
(0.157677 0.00581484 0)
(0.158094 0.0074781 0)
(0.158676 0.00935819 0)
(0.159496 0.0114364 0)
(0.160633 0.0136578 0)
(0.162156 0.015915 0)
(0.16408 0.0180375 0)
(0.100018 -0.000185496 0)
(0.100161 -0.000365862 0)
(0.100394 -0.00052931 0)
(0.100703 -0.000681209 0)
(0.101083 -0.000824188 0)
(0.101525 -0.000960054 0)
(0.102025 -0.00109012 0)
(0.102578 -0.00121541 0)
(0.103178 -0.00133668 0)
(0.103822 -0.00145455 0)
(0.104507 -0.00156949 0)
(0.105229 -0.00168188 0)
(0.105985 -0.00179205 0)
(0.106773 -0.00190024 0)
(0.107591 -0.00200665 0)
(0.108436 -0.00211145 0)
(0.109306 -0.00221477 0)
(0.1102 -0.0023167 0)
(0.111114 -0.00241731 0)
(0.112049 -0.00251666 0)
(0.113001 -0.00261477 0)
(0.11397 -0.00271167 0)
(0.114953 -0.00280733 0)
(0.115951 -0.00290176 0)
(0.11696 -0.00299491 0)
(0.117979 -0.00308674 0)
(0.119009 -0.00317719 0)
(0.120046 -0.00326619 0)
(0.12109 -0.00335365 0)
(0.12214 -0.00343949 0)
(0.123194 -0.0035236 0)
(0.124252 -0.00360585 0)
(0.125312 -0.00368612 0)
(0.126373 -0.00376425 0)
(0.127434 -0.00384009 0)
(0.128494 -0.00391346 0)
(0.129552 -0.00398416 0)
(0.130606 -0.00405198 0)
(0.131656 -0.00411668 0)
(0.132701 -0.00417802 0)
(0.133739 -0.00423569 0)
(0.13477 -0.00428939 0)
(0.135792 -0.00433878 0)
(0.136805 -0.00438346 0)
(0.137806 -0.00442302 0)
(0.138796 -0.00445699 0)
(0.139774 -0.00448483 0)
(0.140737 -0.00450597 0)
(0.141685 -0.00451974 0)
(0.142616 -0.0045254 0)
(0.14353 -0.00452213 0)
(0.144426 -0.00450896 0)
(0.145301 -0.00448485 0)
(0.146156 -0.00444856 0)
(0.146987 -0.00439872 0)
(0.147795 -0.00433372 0)
(0.148578 -0.00425176 0)
(0.149334 -0.00415073 0)
(0.150063 -0.00402821 0)
(0.150762 -0.00388139 0)
(0.15143 -0.00370702 0)
(0.152068 -0.00350133 0)
(0.152672 -0.00325992 0)
(0.153244 -0.0029777 0)
(0.153782 -0.00264873 0)
(0.154287 -0.00226613 0)
(0.15476 -0.00182199 0)
(0.155205 -0.00130722 0)
(0.155624 -0.00071156 0)
(0.156025 -2.34817e-05 0)
(0.156417 0.000768914 0)
(0.156812 0.00167771 0)
(0.157229 0.00271506 0)
(0.157692 0.00389134 0)
(0.158231 0.00521306 0)
(0.158883 0.00667986 0)
(0.159691 0.00828046 0)
(0.160701 0.00998758 0)
(0.161955 0.0117526 0)
(0.16348 0.0135017 0)
(0.165273 0.0151384 0)
(0.100014 -0.000213483 0)
(0.100154 -0.000424244 0)
(0.100381 -0.000615427 0)
(0.100683 -0.000793401 0)
(0.101054 -0.000961068 0)
(0.101488 -0.00112042 0)
(0.101979 -0.00127296 0)
(0.102522 -0.00141986 0)
(0.103112 -0.00156203 0)
(0.103746 -0.00170018 0)
(0.10442 -0.00183486 0)
(0.105131 -0.00196652 0)
(0.105877 -0.00209554 0)
(0.106654 -0.00222221 0)
(0.10746 -0.00234676 0)
(0.108293 -0.00246939 0)
(0.109151 -0.00259025 0)
(0.110032 -0.00270945 0)
(0.110934 -0.00282708 0)
(0.111855 -0.00294319 0)
(0.112794 -0.00305782 0)
(0.113748 -0.00317099 0)
(0.114718 -0.0032827 0)
(0.115701 -0.00339291 0)
(0.116695 -0.00350159 0)
(0.1177 -0.00360869 0)
(0.118713 -0.00371414 0)
(0.119735 -0.00381786 0)
(0.120763 -0.00391974 0)
(0.121797 -0.00401969 0)
(0.122834 -0.00411757 0)
(0.123875 -0.00421324 0)
(0.124918 -0.00430655 0)
(0.125961 -0.00439734 0)
(0.127005 -0.0044854 0)
(0.128047 -0.00457054 0)
(0.129086 -0.00465253 0)
(0.130122 -0.00473112 0)
(0.131153 -0.00480605 0)
(0.132179 -0.00487702 0)
(0.133198 -0.00494369 0)
(0.13421 -0.00500572 0)
(0.135213 -0.0050627 0)
(0.136206 -0.00511422 0)
(0.137189 -0.00515977 0)
(0.138159 -0.00519884 0)
(0.139117 -0.00523084 0)
(0.140062 -0.00525511 0)
(0.140991 -0.00527091 0)
(0.141905 -0.00527744 0)
(0.142801 -0.00527377 0)
(0.14368 -0.00525889 0)
(0.144539 -0.00523162 0)
(0.145379 -0.00519067 0)
(0.146197 -0.00513457 0)
(0.146993 -0.00506164 0)
(0.147766 -0.00496998 0)
(0.148515 -0.00485744 0)
(0.149238 -0.00472157 0)
(0.149937 -0.00455957 0)
(0.150609 -0.00436827 0)
(0.151254 -0.00414404 0)
(0.151873 -0.00388278 0)
(0.152466 -0.00357983 0)
(0.153034 -0.00322997 0)
(0.153578 -0.00282734 0)
(0.154102 -0.00236547 0)
(0.15461 -0.00183731 0)
(0.155107 -0.00123536 0)
(0.155602 -0.000551756 0)
(0.156105 0.000221505 0)
(0.156629 0.00109024 0)
(0.157189 0.00205927 0)
(0.157806 0.00313095 0)
(0.158504 0.00430326 0)
(0.159307 0.00556813 0)
(0.160243 0.00690934 0)
(0.161339 0.00830064 0)
(0.162613 0.00970451 0)
(0.164074 0.0110727 0)
(0.165712 0.0123507 0)
(0.100011 -0.000242324 0)
(0.100148 -0.000484773 0)
(0.100368 -0.000705104 0)
(0.100662 -0.000910554 0)
(0.101025 -0.00110431 0)
(0.101449 -0.00128852 0)
(0.101929 -0.00146486 0)
(0.102462 -0.00163468 0)
(0.103041 -0.00179899 0)
(0.103663 -0.00195861 0)
(0.104326 -0.00211419 0)
(0.105025 -0.00226625 0)
(0.105758 -0.0024152 0)
(0.106522 -0.0025614 0)
(0.107315 -0.00270511 0)
(0.108134 -0.00284656 0)
(0.108978 -0.00298592 0)
(0.109844 -0.00312332 0)
(0.110732 -0.00325886 0)
(0.111638 -0.00339262 0)
(0.112561 -0.00352462 0)
(0.1135 -0.00365489 0)
(0.114454 -0.00378342 0)
(0.11542 -0.00391019 0)
(0.116398 -0.00403515 0)
(0.117385 -0.00415823 0)
(0.118382 -0.00427937 0)
(0.119385 -0.00439846 0)
(0.120396 -0.00451539 0)
(0.121411 -0.00463003 0)
(0.12243 -0.00474225 0)
(0.123451 -0.00485188 0)
(0.124475 -0.00495874 0)
(0.125499 -0.00506264 0)
(0.126522 -0.00516336 0)
(0.127543 -0.00526068 0)
(0.128562 -0.00535433 0)
(0.129578 -0.00544403 0)
(0.130588 -0.00552949 0)
(0.131593 -0.00561036 0)
(0.132591 -0.00568628 0)
(0.133582 -0.00575685 0)
(0.134563 -0.00582163 0)
(0.135535 -0.00588014 0)
(0.136497 -0.00593185 0)
(0.137446 -0.00597618 0)
(0.138384 -0.00601249 0)
(0.139308 -0.00604005 0)
(0.140217 -0.00605809 0)
(0.141111 -0.00606572 0)
(0.141989 -0.00606197 0)
(0.14285 -0.00604576 0)
(0.143692 -0.00601587 0)
(0.144516 -0.00597097 0)
(0.145321 -0.00590953 0)
(0.146105 -0.00582986 0)
(0.146868 -0.00573008 0)
(0.14761 -0.00560807 0)
(0.14833 -0.00546145 0)
(0.149028 -0.00528759 0)
(0.149704 -0.00508353 0)
(0.150358 -0.00484602 0)
(0.150993 -0.00457143 0)
(0.151607 -0.00425582 0)
(0.152205 -0.0038949 0)
(0.152787 -0.0034841 0)
(0.153359 -0.00301862 0)
(0.153925 -0.00249357 0)
(0.154492 -0.00190415 0)
(0.155067 -0.00124593 0)
(0.155661 -0.000515014 0)
(0.156285 0.000291776 0)
(0.156953 0.00117341 0)
(0.157678 0.00212702 0)
(0.158477 0.00314653 0)
(0.159368 0.00422128 0)
(0.160365 0.00533526 0)
(0.161481 0.00646685 0)
(0.162725 0.00758907 0)
(0.164097 0.0086711 0)
(0.165584 0.00968172 0)
(0.100007 -0.00027206 0)
(0.100142 -0.000547442 0)
(0.100356 -0.000798319 0)
(0.100641 -0.00103263 0)
(0.100994 -0.00125388 0)
(0.101408 -0.00146432 0)
(0.101878 -0.00166582 0)
(0.102398 -0.00185984 0)
(0.102965 -0.00204755 0)
(0.103575 -0.00222987 0)
(0.104224 -0.00240752 0)
(0.104909 -0.00258111 0)
(0.105628 -0.0027511 0)
(0.106378 -0.00291789 0)
(0.107156 -0.0030818 0)
(0.10796 -0.00324307 0)
(0.108788 -0.0034019 0)
(0.109639 -0.00355844 0)
(0.11051 -0.00371281 0)
(0.111399 -0.00386509 0)
(0.112305 -0.00401531 0)
(0.113227 -0.0041635 0)
(0.114162 -0.00430965 0)
(0.11511 -0.00445373 0)
(0.116069 -0.0045957 0)
(0.117037 -0.00473547 0)
(0.118014 -0.00487296 0)
(0.118998 -0.00500806 0)
(0.119988 -0.00514064 0)
(0.120983 -0.00527056 0)
(0.121981 -0.00539766 0)
(0.122981 -0.00552175 0)
(0.123983 -0.00564264 0)
(0.124985 -0.0057601 0)
(0.125987 -0.00587389 0)
(0.126986 -0.00598376 0)
(0.127982 -0.00608942 0)
(0.128975 -0.00619055 0)
(0.129963 -0.00628682 0)
(0.130945 -0.00637785 0)
(0.13192 -0.00646325 0)
(0.132887 -0.00654258 0)
(0.133846 -0.00661536 0)
(0.134795 -0.00668106 0)
(0.135733 -0.00673912 0)
(0.13666 -0.00678891 0)
(0.137575 -0.00682974 0)
(0.138477 -0.00686086 0)
(0.139365 -0.00688143 0)
(0.140239 -0.00689055 0)
(0.141097 -0.00688721 0)
(0.141939 -0.0068703 0)
(0.142764 -0.0068386 0)
(0.143572 -0.00679076 0)
(0.144362 -0.00672528 0)
(0.145134 -0.00664053 0)
(0.145888 -0.0065347 0)
(0.146623 -0.0064058 0)
(0.147339 -0.00625167 0)
(0.148037 -0.00606991 0)
(0.148718 -0.00585797 0)
(0.149382 -0.00561306 0)
(0.150031 -0.00533223 0)
(0.150667 -0.00501238 0)
(0.151291 -0.00465029 0)
(0.151909 -0.00424273 0)
(0.152523 -0.00378656 0)
(0.153139 -0.00327888 0)
(0.153763 -0.00271726 0)
(0.154402 -0.00209995 0)
(0.155064 -0.00142616 0)
(0.15576 -0.000696259 0)
(0.1565 8.84354e-05 0)
(0.157293 0.000922445 0)
(0.15815 0.00179686 0)
(0.159081 0.00270137 0)
(0.160094 0.0036225 0)
(0.161194 0.00454388 0)
(0.162383 0.00544686 0)
(0.163657 0.00631186 0)
(0.165008 0.00712076 0)
(0.100003 -0.000302727 0)
(0.100135 -0.000612248 0)
(0.100343 -0.000895044 0)
(0.10062 -0.00115959 0)
(0.100963 -0.00140971 0)
(0.101366 -0.00164776 0)
(0.101823 -0.00187574 0)
(0.102331 -0.00209528 0)
(0.102885 -0.00230766 0)
(0.103481 -0.0025139 0)
(0.104116 -0.00271482 0)
(0.104786 -0.00291108 0)
(0.105489 -0.00310322 0)
(0.106223 -0.00329168 0)
(0.106985 -0.00347682 0)
(0.107772 -0.00365891 0)
(0.108583 -0.00383818 0)
(0.109415 -0.00401481 0)
(0.110268 -0.00418891 0)
(0.111139 -0.00436058 0)
(0.112026 -0.00452987 0)
(0.112928 -0.00469679 0)
(0.113843 -0.00486134 0)
(0.114771 -0.00502349 0)
(0.115709 -0.00518317 0)
(0.116656 -0.00534031 0)
(0.117612 -0.00549481 0)
(0.118574 -0.00564653 0)
(0.119541 -0.00579535 0)
(0.120513 -0.0059411 0)
(0.121489 -0.00608359 0)
(0.122466 -0.00622263 0)
(0.123444 -0.00635799 0)
(0.124423 -0.00648942 0)
(0.1254 -0.00661668 0)
(0.126375 -0.00673945 0)
(0.127347 -0.00685744 0)
(0.128315 -0.00697029 0)
(0.129278 -0.00707764 0)
(0.130235 -0.0071791 0)
(0.131185 -0.00727421 0)
(0.132127 -0.00736253 0)
(0.133061 -0.00744352 0)
(0.133986 -0.00751664 0)
(0.1349 -0.00758128 0)
(0.135803 -0.0076368 0)
(0.136694 -0.00768246 0)
(0.137573 -0.0077175 0)
(0.138439 -0.00774106 0)
(0.139291 -0.00775223 0)
(0.140128 -0.00775 0)
(0.140951 -0.00773326 0)
(0.141758 -0.00770083 0)
(0.14255 -0.0076514 0)
(0.143325 -0.00758357 0)
(0.144085 -0.00749581 0)
(0.144829 -0.00738646 0)
(0.145557 -0.00725376 0)
(0.14627 -0.00709582 0)
(0.146968 -0.00691063 0)
(0.147652 -0.00669607 0)
(0.148325 -0.00644997 0)
(0.148987 -0.00617009 0)
(0.14964 -0.00585422 0)
(0.150289 -0.00550022 0)
(0.150935 -0.00510612 0)
(0.151584 -0.00467023 0)
(0.152239 -0.0041913 0)
(0.152907 -0.00366869 0)
(0.153592 -0.00310256 0)
(0.154302 -0.0024941 0)
(0.155043 -0.00184564 0)
(0.155824 -0.00116078 0)
(0.156651 -0.000444138 0)
(0.157531 0.000298068 0)
(0.15847 0.00105562 0)
(0.159469 0.00181642 0)
(0.16053 0.00256874 0)
(0.161653 0.00330006 0)
(0.162833 0.00399811 0)
(0.164062 0.00465235 0)
(0.0999992 -0.000334349 0)
(0.100129 -0.000679178 0)
(0.10033 -0.000995235 0)
(0.100598 -0.00129136 0)
(0.100931 -0.0015717 0)
(0.101322 -0.00183872 0)
(0.101767 -0.00209452 0)
(0.102262 -0.00234087 0)
(0.102801 -0.00257918 0)
(0.103382 -0.00281057 0)
(0.104001 -0.00303593 0)
(0.104655 -0.00325602 0)
(0.105341 -0.00347141 0)
(0.106058 -0.00368262 0)
(0.106801 -0.00389002 0)
(0.10757 -0.00409394 0)
(0.108362 -0.00429462 0)
(0.109175 -0.00449226 0)
(0.110007 -0.00468699 0)
(0.110857 -0.00487891 0)
(0.111724 -0.00506809 0)
(0.112604 -0.00525453 0)
(0.113498 -0.00543824 0)
(0.114403 -0.00561918 0)
(0.115319 -0.00579727 0)
(0.116243 -0.00597244 0)
(0.117175 -0.00614456 0)
(0.118113 -0.0063135 0)
(0.119056 -0.00647911 0)
(0.120004 -0.0066412 0)
(0.120954 -0.00679958 0)
(0.121906 -0.00695401 0)
(0.122859 -0.00710426 0)
(0.123812 -0.00725007 0)
(0.124763 -0.00739113 0)
(0.125712 -0.00752714 0)
(0.126657 -0.00765776 0)
(0.127599 -0.00778262 0)
(0.128535 -0.00790132 0)
(0.129465 -0.00801345 0)
(0.130389 -0.00811852 0)
(0.131305 -0.00821606 0)
(0.132212 -0.00830552 0)
(0.133111 -0.00838633 0)
(0.133999 -0.00845786 0)
(0.134877 -0.00851945 0)
(0.135743 -0.00857036 0)
(0.136598 -0.00860982 0)
(0.13744 -0.00863699 0)
(0.138269 -0.00865095 0)
(0.139086 -0.00865074 0)
(0.139888 -0.00863531 0)
(0.140677 -0.00860352 0)
(0.141451 -0.00855419 0)
(0.142212 -0.00848603 0)
(0.142959 -0.00839769 0)
(0.143693 -0.00828774 0)
(0.144413 -0.00815468 0)
(0.145121 -0.00799697 0)
(0.145818 -0.00781303 0)
(0.146505 -0.00760125 0)
(0.147184 -0.00736009 0)
(0.147856 -0.00708802 0)
(0.148524 -0.00678367 0)
(0.149191 -0.00644587 0)
(0.149859 -0.00607371 0)
(0.150533 -0.00566666 0)
(0.151216 -0.00522469 0)
(0.151912 -0.0047484 0)
(0.152627 -0.00423912 0)
(0.153365 -0.00369902 0)
(0.154131 -0.00313127 0)
(0.154929 -0.00254005 0)
(0.155764 -0.00193054 0)
(0.15664 -0.00130881 0)
(0.15756 -0.000681159 0)
(0.158525 -5.44443e-05 0)
(0.159535 0.000562334 0)
(0.160587 0.00115981 0)
(0.161677 0.00172884 0)
(0.162799 0.00226335 0)
(0.0999947 -0.000366936 0)
(0.100122 -0.000748206 0)
(0.100318 -0.00109882 0)
(0.100576 -0.00142785 0)
(0.100898 -0.00173973 0)
(0.101277 -0.00203704 0)
(0.101709 -0.00232196 0)
(0.102189 -0.00259641 0)
(0.102713 -0.00286189 0)
(0.103278 -0.00311963 0)
(0.10388 -0.00337062 0)
(0.104516 -0.00361565 0)
(0.105184 -0.00385541 0)
(0.105882 -0.00409041 0)
(0.106606 -0.0043211 0)
(0.107354 -0.00454782 0)
(0.108125 -0.00477086 0)
(0.108917 -0.00499041 0)
(0.109728 -0.00520665 0)
(0.110556 -0.00541967 0)
(0.111399 -0.00562953 0)
(0.112256 -0.00583627 0)
(0.113126 -0.00603987 0)
(0.114007 -0.00624029 0)
(0.114898 -0.00643746 0)
(0.115797 -0.00663127 0)
(0.116704 -0.00682161 0)
(0.117616 -0.00700832 0)
(0.118533 -0.00719124 0)
(0.119454 -0.00737016 0)
(0.120378 -0.00754486 0)
(0.121302 -0.00771511 0)
(0.122228 -0.00788065 0)
(0.123152 -0.00804117 0)
(0.124076 -0.00819638 0)
(0.124996 -0.00834594 0)
(0.125914 -0.00848948 0)
(0.126827 -0.00862661 0)
(0.127735 -0.00875692 0)
(0.128637 -0.00887997 0)
(0.129532 -0.00899526 0)
(0.13042 -0.0091023 0)
(0.131299 -0.00920052 0)
(0.13217 -0.00928935 0)
(0.133031 -0.00936816 0)
(0.133882 -0.00943627 0)
(0.134723 -0.00949297 0)
(0.135552 -0.0095375 0)
(0.13637 -0.00956905 0)
(0.137176 -0.00958676 0)
(0.13797 -0.00958971 0)
(0.138752 -0.00957695 0)
(0.139521 -0.00954746 0)
(0.140279 -0.00950017 0)
(0.141024 -0.009434 0)
(0.141757 -0.00934778 0)
(0.14248 -0.00924038 0)
(0.143192 -0.00911059 0)
(0.143894 -0.00895726 0)
(0.144588 -0.00877924 0)
(0.145275 -0.00857546 0)
(0.145956 -0.00834493 0)
(0.146635 -0.00808681 0)
(0.147311 -0.00780044 0)
(0.147989 -0.00748544 0)
(0.148671 -0.00714171 0)
(0.14936 -0.00676958 0)
(0.150059 -0.00636981 0)
(0.150772 -0.00594372 0)
(0.151501 -0.00549322 0)
(0.15225 -0.00502088 0)
(0.153023 -0.00452995 0)
(0.153821 -0.00402435 0)
(0.154647 -0.00350865 0)
(0.155503 -0.002988 0)
(0.15639 -0.00246799 0)
(0.157308 -0.00195436 0)
(0.158256 -0.00145272 0)
(0.159233 -0.000967976 0)
(0.160235 -0.000504128 0)
(0.161258 -6.54415e-05 0)
(0.0999899 -0.000400481 0)
(0.100115 -0.000819285 0)
(0.100305 -0.00120571 0)
(0.100554 -0.00156891 0)
(0.100864 -0.00191361 0)
(0.101231 -0.00224248 0)
(0.101649 -0.00255781 0)
(0.102114 -0.00286159 0)
(0.102621 -0.00315546 0)
(0.103169 -0.00344073 0)
(0.103753 -0.00371848 0)
(0.10437 -0.00398958 0)
(0.105019 -0.00425475 0)
(0.105695 -0.00451458 0)
(0.106398 -0.00476954 0)
(0.107125 -0.00502003 0)
(0.107874 -0.00526633 0)
(0.108643 -0.00550869 0)
(0.10943 -0.00574727 0)
(0.110234 -0.00598218 0)
(0.111052 -0.00621351 0)
(0.111884 -0.00644126 0)
(0.112729 -0.00666545 0)
(0.113584 -0.006886 0)
(0.114448 -0.00710286 0)
(0.11532 -0.00731591 0)
(0.116199 -0.00752501 0)
(0.117083 -0.00773 0)
(0.117972 -0.0079307 0)
(0.118864 -0.00812689 0)
(0.119759 -0.00831834 0)
(0.120654 -0.00850479 0)
(0.12155 -0.00868596 0)