/*--------------------------------*- C++ -*----------------------------------*\
| =========                 |                                                 |
| \\      /  F ield         | OpenFOAM: The Open Source CFD Toolbox           |
|  \\    /   O peration     | Version:  2106                                  |
|   \\  /    A nd           | Website:  www.openfoam.com                      |
|    \\/     M anipulation  |                                                 |
\*---------------------------------------------------------------------------*/
FoamFile
{
    version     2.0;
    format      ascii;
    arch        "LSB;label=32;scalar=64";
    class       surfaceScalarField;
    location    "5.2";
    object      phi;
}
// * * * * * * * * * * * * * * * * * * * * * * * * * * * * * * * * * * * * * //

dimensions      [1 0 -1 0 0 0 0];

oriented        oriented;

internalField   nonuniform List<scalar> 
23692
(
9.31742e-05
-9.47495e-08
9.33456e-05
-1.71356e-07
9.35851e-05
-2.39463e-07
9.38845e-05
-2.99348e-07
9.42375e-05
-3.5293e-07
9.4639e-05
-4.01387e-07
9.50846e-05
-4.45501e-07
9.55707e-05
-4.85901e-07
9.60939e-05
-5.23063e-07
9.66514e-05
-5.57372e-07
9.72407e-05
-5.89139e-07
9.78596e-05
-6.18621e-07
9.85058e-05
-6.46027e-07
9.91775e-05
-6.71535e-07
9.98731e-05
-6.95293e-07
0.000100591
-7.17427e-07
0.000101329
-7.38041e-07
0.000102086
-7.57225e-07
0.000102862
-7.75061e-07
0.000103654
-7.91606e-07
0.000104461
-8.06922e-07
0.000105282
-8.21056e-07
0.000106117
-8.34045e-07
0.000106963
-8.45927e-07
0.00010782
-8.56732e-07
0.000108687
-8.66484e-07
0.000109562
-8.75203e-07
0.000110445
-8.8291e-07
0.000111335
-8.89617e-07
0.000112231
-8.95338e-07
0.000113131
-9.00079e-07
0.000114035
-9.03849e-07
0.000114942
-9.06653e-07
0.000115851
-9.08492e-07
0.000116761
-9.09366e-07
0.00011767
-9.09273e-07
0.000118579
-9.08207e-07
0.000119485
-9.0616e-07
0.000120388
-9.03122e-07
0.000121288
-8.99081e-07
0.000122182
-8.94019e-07
0.00012307
-8.87913e-07
0.000123951
-8.80741e-07
0.000124824
-8.72472e-07
0.000125687
-8.63068e-07
0.00012654
-8.52491e-07
0.000127381
-8.40689e-07
0.000128209
-8.27605e-07
0.000129022
-8.13169e-07
0.000129819
-7.97302e-07
0.000130599
-7.79909e-07
0.000131361
-7.6088e-07
0.000132101
-7.40085e-07
0.000132818
-7.17366e-07
0.000133511
-6.92544e-07
0.000134176
-6.65399e-07
0.000134812
-6.35671e-07
0.000135415
-6.03046e-07
0.000135983
-5.67146e-07
0.00013651
-5.27508e-07
0.000136994
-4.83569e-07
0.000137429
-4.3463e-07
0.000137809
-3.79818e-07
0.000138127
-3.18036e-07
0.000138375
-2.47885e-07
0.000138542
-1.67563e-07
0.000138617
-7.47194e-08
0.000138583
3.37681e-08
0.000138421
1.6223e-07
0.000138105
3.16626e-07
0.000137599
5.05438e-07
0.000136858
7.41e-07
0.000135817
1.04173e-06
0.000134381
1.43595e-06
0.000132412
1.96847e-06
0.0001297
2.71219e-06
0.000125912
3.78858e-06
0.000120506
5.40555e-06
0.000112561
7.94537e-06
0.00010037
1.21904e-05
2.03786e-05
7.99918e-05
9.96979e-05
-1.93627e-07
9.98803e-05
-3.53684e-07
0.000100136
-4.94882e-07
0.000100455
-6.18805e-07
0.000100832
-7.2973e-07
0.000101261
-8.30033e-07
0.000101737
-9.21339e-07
0.000102256
-1.00494e-06
0.000102815
-1.08184e-06
0.000103411
-1.15283e-06
0.00010404
-1.21856e-06
0.000104701
-1.27955e-06
0.000105392
-1.33624e-06
0.000106109
-1.38901e-06
0.000106853
-1.43815e-06
0.000107619
-1.48392e-06
0.000108408
-1.52655e-06
0.000109217
-1.56622e-06
0.000110046
-1.60309e-06
0.000110892
-1.63729e-06
0.000111754
-1.66895e-06
0.000112631
-1.69816e-06
0.000113523
-1.725e-06
0.000114427
-1.74954e-06
0.000115342
-1.77186e-06
0.000116268
-1.79199e-06
0.000117203
-1.80999e-06
0.000118146
-1.82588e-06
0.000119097
-1.83971e-06
0.000120053
-1.8515e-06
0.000121015
-1.86126e-06
0.00012198
-1.86901e-06
0.000122948
-1.87476e-06
0.000123919
-1.8785e-06
0.00012489
-1.88026e-06
0.000125861
-1.88001e-06
0.000126831
-1.87774e-06
0.000127798
-1.87345e-06
0.000128763
-1.86711e-06
0.000129722
-1.85869e-06
0.000130677
-1.84816e-06
0.000131625
-1.83547e-06
0.000132565
-1.82058e-06
0.000133496
-1.80341e-06
0.000134417
-1.78391e-06
0.000135327
-1.76198e-06
0.000136224
-1.73752e-06
0.000137107
-1.71041e-06
0.000137974
-1.68051e-06
0.000138825
-1.64767e-06
0.000139657
-1.61168e-06
0.000140468
-1.57231e-06
0.000141258
-1.52931e-06
0.000142023
-1.48236e-06
0.000142762
-1.43109e-06
0.000143472
-1.37505e-06
0.00014415
-1.31371e-06
0.000144793
-1.24645e-06
0.000145399
-1.17248e-06
0.000145962
-1.0909e-06
0.000146479
-1.00055e-06
0.000146945
-9.0004e-07
0.000147353
-7.87629e-07
0.000147696
-6.61131e-07
0.000147966
-5.17781e-07
0.000148152
-3.54032e-07
0.000148243
-1.65291e-07
0.000148222
5.4483e-08
0.000148071
3.13523e-07
0.000147765
6.23003e-07
0.000147272
9.98561e-07
0.00014655
1.46241e-06
0.000145545
2.04676e-06
0.000144182
2.79923e-06
0.000142359
3.79159e-06
0.000139938
5.13326e-06
0.000136736
6.99088e-06
0.000132528
9.61388e-06
0.000127105
1.33679e-05
0.0001206
1.86957e-05
2.53972e-05
0.000115581
0.000106678
-2.9604e-07
0.000106871
-5.46741e-07
0.000107142
-7.66052e-07
0.000107482
-9.58648e-07
0.000107883
-1.13097e-06
0.00010834
-1.28674e-06
0.000108847
-1.42852e-06
0.000109401
-1.55831e-06
0.000109997
-1.67768e-06
0.000110632
-1.78786e-06
0.000111304
-1.88986e-06
0.000112009
-1.9845e-06
0.000112745
-2.07245e-06
0.000113511
-2.1543e-06
0.000114303
-2.23051e-06
0.000115121
-2.30149e-06
0.000115963
-2.36758e-06
0.000116826
-2.42908e-06
0.000117709
-2.48622e-06
0.000118611
-2.53922e-06
0.000119531
-2.58826e-06
0.000120467
-2.63348e-06
0.000121417
-2.67504e-06
0.000122381
-2.71302e-06
0.000123357
-2.74754e-06
0.000124344
-2.77867e-06
0.000125341
-2.80648e-06
0.000126346
-2.83102e-06
0.000127359
-2.85236e-06
0.000128378
-2.87051e-06
0.000129403
-2.88552e-06
0.000130432
-2.8974e-06
0.000131464
-2.90618e-06
0.000132497
-2.91185e-06
0.000133532
-2.91442e-06
0.000134566
-2.91388e-06
0.000135599
-2.91022e-06
0.000136629
-2.9034e-06
0.000137655
-2.89341e-06
0.000138677
-2.88019e-06
0.000139693
-2.86369e-06
0.000140702
-2.84385e-06
0.000141702
-2.82059e-06
0.000142693
-2.79381e-06
0.000143672
-2.76341e-06
0.00014464
-2.72925e-06
0.000145594
-2.69117e-06
0.000146533
-2.649e-06
0.000147455
-2.60253e-06
0.000148359
-2.5515e-06
0.000149243
-2.49562e-06
0.000150105
-2.43455e-06
0.000150944
-2.36788e-06
0.000151757
-2.29514e-06
0.000152542
-2.21577e-06
0.000153296
-2.12909e-06
0.000154017
-2.03432e-06
0.000154701
-1.9305e-06
0.000155345
-1.81649e-06
0.000155945
-1.6909e-06
0.000156497
-1.55206e-06
0.000156995
-1.3979e-06
0.000157433
-1.22586e-06
0.000157805
-1.03278e-06
0.000158102
-8.14643e-07
0.000158314
-5.66389e-07
0.000158431
-2.81517e-07
0.000158437
4.8319e-08
0.000158316
4.34504e-07
0.000158047
8.91666e-07
0.000157606
1.44014e-06
0.000156961
2.10769e-06
0.000156075
2.93282e-06
0.000154905
3.96939e-06
0.000153403
5.29299e-06
0.000151528
7.00875e-06
0.000149261
9.25814e-06
0.000146657
1.22169e-05
0.000143964
1.60611e-05
0.000141859
2.08013e-05
2.57052e-05
0.000141551
0.000114146
-4.01733e-07
0.000114349
-7.50026e-07
0.000114636
-1.0528e-06
0.000114996
-1.31899e-06
0.000115422
-1.55706e-06
0.000115908
-1.77217e-06
0.000116447
-1.96791e-06
0.000117036
-2.14706e-06
0.000117671
-2.31179e-06
0.000118347
-2.46382e-06
0.000119062
-2.60452e-06
0.000119812
-2.73504e-06
0.000120597
-2.85632e-06
0.000121412
-2.96915e-06
0.000122256
-3.0742e-06
0.000123126
-3.17201e-06
0.000124022
-3.26306e-06
0.000124941
-3.34775e-06
0.000125882
-3.42643e-06
0.000126842
-3.49938e-06
0.000127821
-3.56685e-06
0.000128817
-3.62905e-06
0.000129829
-3.68617e-06
0.000130854
-3.73836e-06
0.000131893
-3.78576e-06
0.000132943
-3.82847e-06
0.000134004
-3.8666e-06
0.000135073
-3.90021e-06
0.00013615
-3.92938e-06
0.000137234
-3.95417e-06
0.000138324
-3.9746e-06
0.000139418
-3.99072e-06
0.000140514
-4.00254e-06
0.000141613
-4.01008e-06
0.000142712
-4.01333e-06
0.000143811
-4.01229e-06
0.000144908
-4.00694e-06
0.000146002
-3.99724e-06
0.000147092
-3.98315e-06
0.000148177
-3.96461e-06
0.000149255
-3.94156e-06
0.000150325
-3.9139e-06
0.000151387
-3.88153e-06
0.000152437
-3.84433e-06
0.000153476
-3.80213e-06
0.000154502
-3.75477e-06
0.000155513
-3.70204e-06
0.000156508
-3.64369e-06
0.000157485
-3.57945e-06
0.000158443
-3.50896e-06
0.000159379
-3.43185e-06
0.000160293
-3.34765e-06
0.000161181
-3.25583e-06
0.000162042
-3.15576e-06
0.000162873
-3.04668e-06
0.000163672
-2.92773e-06
0.000164435
-2.79784e-06
0.000165161
-2.65578e-06
0.000165844
-2.50006e-06
0.000166483
-2.32889e-06
0.000167071
-2.14008e-06
0.000167604
-1.93101e-06
0.000168077
-1.69844e-06
0.000168482
-1.43837e-06
0.000168814
-1.14585e-06
0.000169062
-8.14662e-07
0.000169217
-4.36916e-07
0.000169269
-3.17723e-09
0.000169203
5.00486e-07
0.000169006
1.0893e-06
0.00016866
1.78544e-06
0.000168151
2.6172e-06
0.000167462
3.62171e-06
0.000166584
4.84738e-06
0.000165521
6.35632e-06
0.000164304
8.22534e-06
0.00016302
1.0542e-05
0.00016185
1.33872e-05
0.000161125
1.67863e-05
0.000161341
2.05852e-05
2.41927e-05
0.000162854
0.000122136
-5.10573e-07
0.000122349
-9.63128e-07
0.000122652
-1.3549e-06
0.000123032
-1.69982e-06
0.000123484
-2.00822e-06
0.000123999
-2.2868e-06
0.000124571
-2.5402e-06
0.000125196
-2.77207e-06
0.00012587
-2.98522e-06
0.000126588
-3.18187e-06
0.000127348
-3.36383e-06
0.000128145
-3.53259e-06
0.000128979
-3.68935e-06
0.000129845
-3.83515e-06
0.000130742
-3.97085e-06
0.000131667
-4.09717e-06
0.000132619
-4.21471e-06
0.000133596
-4.32401e-06
0.000134595
-4.4255e-06
0.000135616
-4.51956e-06
0.000136656
-4.60652e-06
0.000137714
-4.68665e-06
0.000138788
-4.76019e-06
0.000139878
-4.82733e-06
0.000140981
-4.88826e-06
0.000142096
-4.94311e-06
0.000143221
-4.99201e-06
0.000144357
-5.03507e-06
0.0001455
-5.07237e-06
0.00014665
-5.10398e-06
0.000147806
-5.12995e-06
0.000148966
-5.15034e-06
0.000150129
-5.16515e-06
0.000151294
-5.17442e-06
0.000152459
-5.17815e-06
0.000153623
-5.17631e-06
0.000154785
-5.16889e-06
0.000155944
-5.15586e-06
0.000157099
-5.13714e-06
0.000158247
-5.11268e-06
0.000159388
-5.08239e-06
0.000160521
-5.04616e-06
0.000161643
-5.00385e-06
0.000162755
-4.9553e-06
0.000163853
-4.90033e-06
0.000164937
-4.83872e-06
0.000166006
-4.77022e-06
0.000167057
-4.6945e-06
0.000168089
-4.61123e-06
0.0001691
-4.51998e-06
0.000170089
-4.42028e-06
0.000171053
-4.31155e-06
0.000171991
-4.19314e-06
0.000172899
-4.06426e-06
0.000173777
-3.92401e-06
0.000174621
-3.77132e-06
0.000175428
-3.60492e-06
0.000176195
-3.42331e-06
0.00017692
-3.22471e-06
0.000177598
-3.00699e-06
0.000178226
-2.7676e-06
0.000178799
-2.50347e-06
0.000179311
-2.21087e-06
0.000179758
-1.88527e-06
0.000180134
-1.52112e-06
0.000180431
-1.11162e-06
0.000180642
-6.48336e-07
0.00018076
-1.20959e-07
0.000180777
4.83561e-07
0.000180686
1.18078e-06
0.00018048
1.99079e-06
0.000180159
2.9383e-06
0.000179728
4.0535e-06
0.000179203
5.37241e-06
0.000178623
6.93621e-06
0.00017806
8.78821e-06
0.000177636
1.09657e-05
0.000177541
1.34822e-05
0.000178036
1.62913e-05
0.000179398
1.92231e-05
2.18932e-05
0.000181698
0.000130686
-6.22559e-07
0.000130909
-1.18571e-06
0.000131226
-1.67209e-06
0.000131628
-2.10102e-06
0.000132104
-2.48457e-06
0.000132648
-2.83092e-06
0.000133254
-3.14589e-06
0.000133916
-3.43402e-06
0.00013463
-3.69879e-06
0.000135391
-3.94301e-06
0.000136197
-4.16891e-06
0.000137043
-4.37834e-06
0.000137927
-4.57283e-06
0.000138845
-4.75366e-06
0.000139797
-4.92189e-06
0.000140778
-5.07843e-06
0.000141788
-5.22405e-06
0.000142824
-5.35938e-06
0.000143884
-5.48499e-06
0.000144966
-5.60134e-06
0.000146068
-5.70884e-06
0.00014719
-5.80783e-06
0.000148329
-5.8986e-06
0.000149483
-5.98142e-06
0.000150652
-6.05649e-06
0.000151833
-6.12399e-06
0.000153026
-6.18409e-06
0.000154228
-6.23691e-06
0.000155439
-6.28256e-06
0.000156656
-6.32113e-06
0.000157879
-6.3527e-06
0.000159107
-6.3773e-06
0.000160337
-6.39498e-06
0.000161569
-6.40577e-06
0.000162801
-6.40966e-06
0.000164031
-6.40664e-06
0.000165259
-6.3967e-06
0.000166484
-6.37978e-06
0.000167703
-6.35582e-06
0.000168915
-6.32474e-06
0.00017012
-6.28643e-06
0.000171314
-6.24076e-06
0.000172499
-6.18759e-06
0.00017367
-6.12672e-06
0.000174828
-6.05792e-06
0.000175971
-5.98095e-06
0.000177096
-5.89549e-06
0.000178203
-5.80118e-06
0.00017929
-5.69761e-06
0.000180354
-5.58429e-06
0.000181395
-5.46066e-06
0.00018241
-5.32606e-06
0.000183397
-5.17971e-06
0.000184353
-5.02072e-06
0.000185278
-4.84805e-06
0.000186167
-4.66047e-06
0.000187019
-4.45654e-06
0.00018783
-4.23457e-06
0.000188598
-3.99257e-06
0.000189319
-3.7282e-06
0.000189991
-3.43865e-06
0.000190608
-3.12062e-06
0.000191167
-2.77014e-06
0.000191665
-2.38249e-06
0.000192096
-1.952e-06
0.000192456
-1.47184e-06
0.000192742
-9.33855e-07
0.000192949
-3.28253e-07
0.000193076
3.56535e-07
0.000193123
1.13388e-06
0.000193094
2.0198e-06
0.000193
3.0328e-06
0.00019286
4.19355e-06
0.000192708
5.52384e-06
0.0001926
7.04455e-06
0.000192617
8.7715e-06
0.000192875
1.07081e-05
0.000193524
1.2833e-05
0.000194734
1.50807e-05
0.000196642
1.73157e-05
1.93109e-05
0.000199224
0.000139835
-7.37767e-07
0.000140067
-1.41753e-06
0.000140399
-2.00416e-06
0.000140821
-2.52243e-06
0.000141322
-2.98607e-06
0.000141896
-3.40469e-06
0.000142536
-3.78531e-06
0.000143235
-4.13338e-06
0.00014399
-4.45315e-06
0.000144795
-4.74798e-06
0.000145647
-5.02061e-06
0.000146542
-5.27327e-06
0.000147478
-5.50781e-06
0.00014845
-5.72579e-06
0.000149457
-5.92849e-06
0.000150496
-6.11702e-06
0.000151565
-6.2923e-06
0.000152661
-6.45512e-06
0.000153782
-6.60615e-06
0.000154927
-6.74596e-06
0.000156094
-6.87504e-06
0.00015728
-6.99381e-06
0.000158485
-7.10263e-06
0.000159706
-7.2018e-06
0.000160941
-7.29158e-06
0.00016219
-7.37221e-06
0.00016345
-7.44386e-06
0.00016472
-7.5067e-06
0.000165999
-7.56086e-06
0.000167285
-7.60646e-06
0.000168576
-7.64357e-06
0.000169871
-7.67227e-06
0.000171169
-7.6926e-06
0.000172469
-7.7046e-06
0.000173768
-7.70826e-06
0.000175065
-7.7036e-06
0.000176359
-7.69056e-06
0.000177649
-7.66912e-06
0.000178933
-7.6392e-06
0.000180209
-7.6007e-06
0.000181477
-7.55351e-06
0.000182734
-7.49749e-06
0.000183979
-7.43245e-06
0.000185211
-7.35819e-06
0.000186428
-7.27446e-06
0.000187628
-7.18095e-06
0.00018881
-7.07734e-06
0.000189972
-6.9632e-06
0.000191113
-6.83808e-06
0.000192231
-6.70144e-06
0.000193323
-6.55263e-06
0.000194388
-6.39093e-06
0.000195424
-6.21549e-06
0.000196429
-6.02532e-06
0.0001974
-5.81929e-06
0.000198336
-5.59606e-06
0.000199234
-5.3541e-06
0.000200091
-5.09162e-06
0.000200905
-4.80651e-06
0.000201673
-4.49634e-06
0.000202393
-4.15826e-06
0.000203062
-3.78893e-06
0.000203676
-3.38446e-06
0.000204234
-2.94029e-06
0.000204733
-2.45108e-06
0.000205172
-1.91064e-06
0.00020555
-1.31178e-06
0.000205868
-6.46228e-07
0.00020613
9.53677e-08
0.00020634
9.23045e-07
0.000206513
1.84747e-06
0.000206665
2.88028e-06
0.000206826
4.03263e-06
0.000207036
5.31393e-06
0.000207351
6.72956e-06
0.000207846
8.27752e-06
0.00020861
9.94357e-06
0.000209749
1.16946e-05
0.000211358
1.34708e-05
0.000213496
1.51782e-05
1.66893e-05
0.000216118
0.000149624
-8.56325e-07
0.000149865
-1.65839e-06
0.000150212
-2.3509e-06
0.000150654
-2.96384e-06
0.00015118
-3.5126e-06
0.000151784
-4.0081e-06
0.000152457
-4.45857e-06
0.000153195
-4.87042e-06
0.00015399
-5.24867e-06
0.00015484
-5.5973e-06
0.000155739
-5.91954e-06
0.000156684
-6.21806e-06
0.000157672
-6.49506e-06
0.000158699
-6.75236e-06
0.000159762
-6.99152e-06
0.000160859
-7.21384e-06
0.000161988
-7.42041e-06
0.000163145
-7.61218e-06
0.00016433
-7.78993e-06
0.000165538
-7.95436e-06
0.00016677
-8.10604e-06
0.000168022
-8.24548e-06
0.000169293
-8.3731e-06
0.000170581
-8.48926e-06
0.000171884
-8.59428e-06
0.000173201
-8.68843e-06
0.000174529
-8.77193e-06
0.000175868
-8.84498e-06
0.000177215
-8.90774e-06
0.00017857
-8.96034e-06
0.000179929
-9.00289e-06
0.000181293
-9.03547e-06
0.000182659
-9.05814e-06
0.000184026
-9.07095e-06
0.000185392
-9.07391e-06
0.000186756
-9.06702e-06
0.000188116
-9.05025e-06
0.000189471
-9.02355e-06
0.000190819
-8.98686e-06
0.000192159
-8.94007e-06
0.000193489
-8.88306e-06
0.000194807
-8.81567e-06
0.000196113
-8.73772e-06
0.000197404
-8.64896e-06
0.000198679
-8.54914e-06
0.000199936
-8.43793e-06
0.000201174
-8.31496e-06
0.000202391
-8.1798e-06
0.000203585
-8.03193e-06
0.000204755
-7.87079e-06
0.000205898
-7.6957e-06
0.000207014
-7.50588e-06
0.000208099
-7.30044e-06
0.000209152
-7.07835e-06
0.000210172
-6.83843e-06
0.000211155
-6.57932e-06
0.000212101
-6.29945e-06
0.000213006
-5.99703e-06
0.00021387
-5.66999e-06
0.00021469
-5.31596e-06
0.000215464
-4.93221e-06
0.000216191
-4.51563e-06
0.000216869
-4.06268e-06
0.000217498
-3.56931e-06
0.000218078
-3.03096e-06
0.00021861
-2.44253e-06
0.000219097
-1.79837e-06
0.000219543
-1.09231e-06
0.000219956
-3.1777e-07
0.000220348
5.31789e-07
0.000220733
1.46186e-06
0.000221136
2.47757e-06
0.000221586
3.5824e-06
0.000222124
4.77678e-06
0.000222797
6.05646e-06
0.000223664
7.41035e-06
0.00022479
8.81804e-06
0.000226237
1.02472e-05
0.000228056
1.16514e-05
0.000230264
1.29702e-05
1.41335e-05
0.00023282
0.000160099
-9.78394e-07
0.000160349
-1.90819e-06
0.00016071
-2.71215e-06
0.000161172
-3.42504e-06
0.000161723
-4.06397e-06
0.000162356
-4.64104e-06
0.000163064
-5.16566e-06
0.000163839
-5.64521e-06
0.000164676
-6.08552e-06
0.00016557
-6.49121e-06
0.000166517
-6.86604e-06
0.000167512
-7.21312e-06
0.000168552
-7.53502e-06
0.000169634
-7.83388e-06
0.000170755
-8.11151e-06
0.000171911
-8.36942e-06
0.0001731
-8.60892e-06
0.000174319
-8.83109e-06
0.000175566
-9.03687e-06
0.00017684
-9.22705e-06
0.000178136
-9.40233e-06
0.000179455
-9.56328e-06
0.000180792
-9.71041e-06
0.000182148
-9.84415e-06
0.000183519
-9.96487e-06
0.000184904
-1.00729e-05
0.000186301
-1.01685e-05
0.000187708
-1.02518e-05
0.000189124
-1.03232e-05
0.000190547
-1.03827e-05
0.000191975
-1.04305e-05
0.000193407
-1.04666e-05
0.00019484
-1.04912e-05
0.000196274
-1.05044e-05
0.000197707
-1.0506e-05
0.000199137
-1.04963e-05
0.000200562
-1.0475e-05
0.000201981
-1.04422e-05
0.000203392
-1.03979e-05
0.000204795
-1.03419e-05
0.000206186
-1.0274e-05
0.000207565
-1.01942e-05
0.00020893
-1.01022e-05
0.000210279
-9.99786e-06
0.000211611
-9.8808e-06
0.000212924
-9.75072e-06
0.000214217
-9.60724e-06
0.000215487
-9.44992e-06
0.000216734
-9.27824e-06
0.000217955
-9.0916e-06
0.000219149
-8.88932e-06
0.000220314
-8.67061e-06
0.000221449
-8.4346e-06
0.000222551
-8.18025e-06
0.000223619
-7.9064e-06
0.000224652
-7.61175e-06
0.000225647
-7.29479e-06
0.000226604
-6.95383e-06
0.000227521
-6.58696e-06
0.000228398
-6.19204e-06
0.000229232
-5.76667e-06
0.000230025
-5.30817e-06
0.000230776
-4.81359e-06
0.000231487
-4.27969e-06
0.000232159
-3.70298e-06
0.000232796
-3.07976e-06
0.000233404
-2.40621e-06
0.00023399
-1.6785e-06
0.000234566
-8.92949e-07
0.000235144
-4.62471e-08
0.000235742
8.63569e-07
0.000236384
1.83586e-06
0.000237098
2.8689e-06
0.000237917
3.95779e-06
0.00023888
5.09355e-06
0.000240028
6.2621e-06
0.000241403
7.4434e-06
0.000243039
8.61083e-06
0.000244959
9.73145e-06
0.000247162
1.07677e-05
1.16816e-05
0.000249614
0.000171308
-1.10413e-06
0.000171566
-2.1668e-06
0.000171942
-3.08773e-06
0.000172423
-3.90578e-06
0.000172999
-4.63989e-06
0.000173661
-5.30323e-06
0.000174402
-5.90634e-06
0.000175215
-6.45759e-06
0.000176093
-6.96359e-06
0.000177032
-7.42965e-06
0.000178026
-7.8601e-06
0.000179072
-8.25849e-06
0.000180165
-8.62778e-06
0.000181302
-8.97045e-06
0.00018248
-9.28857e-06
0.000183694
-9.58391e-06
0.000184944
-9.85796e-06
0.000186225
-1.0112e-05
0.000187536
-1.0347e-05
0.000188874
-1.05641e-05
0.000190236
-1.07639e-05
0.00019162
-1.09472e-05
0.000193025
-1.11145e-05
0.000194447
-1.12663e-05
0.000195886
-1.14031e-05
0.000197339
-1.15253e-05
0.000198804
-1.1633e-05
0.00020028
-1.17268e-05
0.000201764
-1.18066e-05
0.000203254
-1.18728e-05
0.00020475
-1.19255e-05
0.000206249
-1.19649e-05
0.000207749
-1.19909e-05
0.000209249
-1.20038e-05
0.000210747
-1.20035e-05
0.000212241
-1.19901e-05
0.00021373
-1.19635e-05
0.000215212
-1.19238e-05
0.000216686
-1.18708e-05
0.000218149
-1.18046e-05
0.0002196
-1.17248e-05
0.000221038
-1.16315e-05
0.00022246
-1.15244e-05
0.000223866
-1.14033e-05
0.000225254
-1.12678e-05
0.000226621
-1.11178e-05
0.000227967
-1.09528e-05
0.00022929
-1.07723e-05
0.000230588
-1.05758e-05
0.000231859
-1.03629e-05
0.000233103
-1.01328e-05
0.000234318
-9.88479e-06
0.000235501
-9.61802e-06
0.000236653
-9.33153e-06
0.000237771
-9.02427e-06
0.000238855
-8.69505e-06
0.000239903
-8.34252e-06
0.000240914
-7.96523e-06
0.000241889
-7.56153e-06
0.000242827
-7.12966e-06
0.000243728
-6.6677e-06
0.000244594
-6.17357e-06
0.000245426
-5.6451e-06
0.000246226
-5.08003e-06
0.000246999
-4.47609e-06
0.000247751
-3.8311e-06
0.000248488
-3.14304e-06
0.00024922
-2.41029e-06
0.000249959
-1.63176e-06
0.00025072
-8.07093e-07
0.00025152
6.33218e-08
0.00025238
9.76324e-07
0.000253322
1.92614e-06
0.000254375
2.90549e-06
0.000255564
3.90405e-06
0.000256918
4.90829e-06
0.00025846
5.90131e-06
0.000260208
6.86316e-06
0.000262168
7.77166e-06
0.000264332
8.60405e-06
9.33981e-06
0.000266674
0.000183301
-1.23365e-06
0.000183568
-2.43414e-06
0.000183958
-3.47742e-06
0.000184458
-4.40575e-06
0.000185058
-5.23998e-06
0.000185749
-5.99427e-06
0.000186524
-6.68021e-06
0.000187373
-7.30713e-06
0.000188293
-7.88249e-06
0.000189275
-8.41228e-06
0.000190317
-8.90138e-06
0.000191413
-9.35384e-06
0.000192559
-9.77302e-06
0.00019375
-1.01618e-05
0.000194985
-1.05224e-05
0.000196258
-1.0857e-05
0.000197568
-1.11672e-05
0.000198911
-1.14544e-05
0.000200284
-1.172e-05
0.000201686
-1.1965e-05
0.000203113
-1.21902e-05
0.000204562
-1.23966e-05
0.000206033
-1.25846e-05
0.000207522
-1.2755e-05
0.000209028
-1.29082e-05
0.000210548
-1.30446e-05
0.00021208
-1.31647e-05
0.000213623
-1.32686e-05
0.000215173
-1.33568e-05
0.000216731
-1.34294e-05
0.000218292
-1.34867e-05
0.000219857
-1.35287e-05
0.000221422
-1.35556e-05
0.000222986
-1.35675e-05
0.000224548
-1.35645e-05
0.000226105
-1.35466e-05
0.000227656
-1.35139e-05
0.000229199
-1.34662e-05
0.000230732
-1.34036e-05
0.000232254
-1.3326e-05
0.000233763
-1.32334e-05
0.000235258
-1.31254e-05
0.000236736
-1.30021e-05
0.000238196
-1.28631e-05
0.000239637
-1.27083e-05
0.000241057
-1.25372e-05
0.000242454
-1.23497e-05
0.000243827
-1.21452e-05
0.000245175
-1.19234e-05
0.000246496
-1.16836e-05
0.000247789
-1.14254e-05
0.000249053
-1.1148e-05
0.000250286
-1.08507e-05
0.000251487
-1.05327e-05
0.000252656
-1.01931e-05
0.000253793
-9.83093e-06
0.000254895
-9.44506e-06
0.000255965
-9.03435e-06
0.000257001
-8.59758e-06
0.000258005
-8.13343e-06
0.000258978
-7.64058e-06
0.000259923
-7.11767e-06
0.000260841
-6.56338e-06
0.000261738
-5.9765e-06
0.000262618
-5.35597e-06
0.000263488
-4.701e-06
0.000264356
-4.01121e-06
0.000265233
-3.28679e-06
0.00026613
-2.52862e-06
0.000267061
-1.73845e-06
0.000268044
-9.1894e-07
0.000269094
-7.36631e-08
0.000270229
7.90969e-07
0.000271468
1.66641e-06
0.00027283
2.54257e-06
0.00027433
3.40813e-06
0.000275981
4.24997e-06
0.000277791
5.05401e-06
0.000279757
5.80582e-06
0.000281869
6.49184e-06
7.10113e-06
0.000284108
0.000196133
-1.36705e-06
0.000196409
-2.71007e-06
0.000196813
-3.88094e-06
0.000197332
-4.92457e-06
0.000197956
-5.86374e-06
0.000198675
-6.71356e-06
0.000199482
-7.4866e-06
0.000200368
-8.19317e-06
0.000201328
-8.84153e-06
0.000202354
-9.43836e-06
0.000203442
-9.98914e-06
0.000204587
-1.04984e-05
0.000205785
-1.097e-05
0.00020703
-1.1407e-05
0.000208321
-1.18121e-05
0.000209652
-1.21877e-05
0.000211021
-1.25356e-05
0.000212424
-1.28575e-05
0.00021386
-1.31547e-05
0.000215324
-1.34286e-05
0.000216814
-1.36801e-05
0.000218328
-1.39101e-05
0.000219864
-1.41194e-05
0.000221418
-1.43087e-05
0.000222989
-1.44785e-05
0.000224574
-1.46293e-05
0.000226172
-1.47615e-05
0.000227779
-1.48756e-05
0.000229395
-1.49718e-05
0.000231017
-1.50505e-05
0.000232642
-1.51117e-05
0.00023427
-1.51558e-05
0.000235898
-1.51829e-05
0.000237524
-1.51931e-05
0.000239147
-1.51866e-05
0.000240764
-1.51633e-05
0.000242374
-1.51233e-05
0.000243975
-1.50668e-05
0.000245566
-1.49935e-05
0.000247144
-1.49036e-05
0.000248708
-1.47968e-05
0.000250256
-1.46732e-05
0.000251787
-1.45326e-05
0.000253299
-1.43747e-05
0.000254791
-1.41995e-05
0.000256261
-1.40066e-05
0.000257708
-1.37958e-05
0.00025913
-1.35668e-05
0.000260526
-1.33191e-05
0.000261895
-1.30523e-05
0.000263236
-1.27659e-05
0.000264548
-1.24595e-05
0.00026583
-1.21325e-05
0.000267081
-1.17841e-05
0.000268303
-1.14138e-05
0.000269493
-1.10208e-05
0.000270652
-1.06044e-05
0.000271782
-1.01638e-05
0.000272883
-9.69824e-06
0.000273957
-9.20694e-06
0.000275006
-8.6892e-06
0.000276033
-8.14443e-06
0.000277042
-7.57216e-06
0.000278038
-6.97213e-06
0.000279026
-6.34436e-06
0.000280015
-5.68926e-06
0.000281011
-5.00772e-06
0.000282026
-4.3012e-06
0.000283069
-3.5719e-06
0.000284154
-2.82281e-06
0.000285293
-2.05777e-06
0.000286501
-1.28149e-06
0.000287791
-4.99049e-07
0.000289175
2.82417e-07
0.000290663
1.05426e-06
0.000292265
1.80694e-06
0.000293984
2.53049e-06
0.000295823
3.21553e-06
0.000297776
3.85287e-06
0.000299833
4.43448e-06
4.95475e-06
0.00030198
0.000209865
-1.50434e-06
0.000210149
-2.99439e-06
0.000210566
-4.29788e-06
0.000211103
-5.46167e-06
0.00021175
-6.51044e-06
0.000212497
-7.46027e-06
0.000213335
-8.3246e-06
0.000214257
-9.11468e-06
0.000215256
-9.8396e-06
0.000216324
-1.05067e-05
0.000217458
-1.11222e-05
0.000218651
-1.16909e-05
0.000219898
-1.22173e-05
0.000221197
-1.27047e-05
0.000222541
-1.31563e-05
0.000223929
-1.35745e-05
0.000225355
-1.39616e-05
0.000226818
-1.43194e-05
0.000228313
-1.46494e-05
0.000229838
-1.4953e-05
0.00023139
-1.52315e-05
0.000232967
-1.54858e-05
0.000234565
-1.57167e-05
0.000236182
-1.59251e-05
0.000237815
-1.61116e-05
0.000239464
-1.62768e-05
0.000241124
-1.64211e-05
0.000242794
-1.6545e-05
0.000244472
-1.66488e-05
0.000246155
-1.6733e-05
0.000247841
-1.67976e-05
0.000249529
-1.68431e-05
0.000251217
-1.68696e-05
0.000252901
-1.68773e-05
0.000254582
-1.68662e-05
0.000256256
-1.68366e-05
0.000257921
-1.67885e-05
0.000259577
-1.67219e-05
0.000261221
-1.66369e-05
0.000262852
-1.65335e-05
0.000264467
-1.64117e-05
0.000266066
-1.62714e-05
0.000267647
-1.61125e-05
0.000269207
-1.59349e-05
0.000270747
-1.57385e-05
0.000272264
-1.55231e-05
0.000273757
-1.52885e-05
0.000275225
-1.50345e-05
0.000276667
-1.47608e-05
0.000278082
-1.44671e-05
0.00027947
-1.41531e-05
0.000280829
-1.38184e-05
0.00028216
-1.34627e-05
0.000283462
-1.30856e-05
0.000284735
-1.26867e-05
0.00028598
-1.22656e-05
0.000287198
-1.18219e-05
0.000288389
-1.13553e-05
0.000289557
-1.08654e-05
0.000290702
-1.03522e-05
0.000291829
-9.81545e-06
0.00029294
-9.25533e-06
0.00029404
-8.67212e-06
0.000295135
-8.06636e-06
0.00029623
-7.43895e-06
0.000297332
-6.79118e-06
0.000298449
-6.12478e-06
0.00029959
-5.44203e-06
0.000300764
-4.74581e-06
0.000301981
-4.0396e-06
0.000303251
-3.32756e-06
0.000304584
-2.61445e-06
0.000305991
-1.90551e-06
0.000307479
-1.20621e-06
0.000309056
-5.22285e-07
0.000310724
1.3958e-07
0.000312482
7.72213e-07
0.000314329
1.36893e-06
0.000316258
1.92374e-06
0.000318261
2.43168e-06
2.89024e-06
0.000320325
0.000224557
-1.64545e-06
0.000224849
-3.2868e-06
0.000225279
-4.72767e-06
0.000225834
-6.01628e-06
0.000226503
-7.17914e-06
0.000227276
-8.23324e-06
0.000228145
-9.19289e-06
0.000229101
-1.00702e-05
0.000230137
-1.08751e-05
0.000231246
-1.16157e-05
0.000232423
-1.22987e-05
0.000233662
-1.29295e-05
0.000234958
-1.35129e-05
0.000236307
-1.40529e-05
0.000237704
-1.45527e-05
0.000239145
-1.50152e-05
0.000240627
-1.54428e-05
0.000242146
-1.58376e-05
0.000243698
-1.62013e-05
0.000245282
-1.65356e-05
0.000246892
-1.68416e-05
0.000248528
-1.71206e-05
0.000250185
-1.73734e-05
0.000251862
-1.76011e-05
0.000253555
-1.78042e-05
0.000255263
-1.79836e-05
0.000256982
-1.81396e-05
0.000258711
-1.82729e-05
0.000260447
-1.83839e-05
0.000262187
-1.84729e-05
0.000263931
-1.85403e-05
0.000265675
-1.85864e-05
0.000267417
-1.86114e-05
0.000269156
-1.86156e-05
0.00027089
-1.85991e-05
0.000272616
-1.85621e-05
0.000274333
-1.85048e-05
0.000276039
-1.84272e-05
0.000277732
-1.83294e-05
0.000279411
-1.82116e-05
0.000281074
-1.80736e-05
0.000282718
-1.79157e-05
0.000284344
-1.77376e-05
0.000285949
-1.75395e-05
0.000287533
-1.73213e-05
0.000289093
-1.70829e-05
0.00029063
-1.68242e-05
0.000292141
-1.65452e-05
0.000293626
-1.62457e-05
0.000295085
-1.59255e-05
0.000296517
-1.55847e-05
0.000297922
-1.52229e-05
0.0002993
-1.48402e-05
0.000300651
-1.44363e-05
0.000301976
-1.40112e-05
0.000303276
-1.35649e-05
0.000304552
-1.30974e-05
0.000305806
-1.26088e-05
0.00030704
-1.20992e-05
0.000308257
-1.1569e-05
0.00030946
-1.10187e-05
0.000310654
-1.04489e-05
0.000311843
-9.86061e-06
0.000313032
-9.25496e-06
0.000314227
-8.63346e-06
0.000315434
-7.99795e-06
0.00031666
-7.35065e-06
0.000317912
-6.69423e-06
0.000319198
-6.03174e-06
0.000320525
-5.36668e-06
0.000321901
-4.70298e-06
0.000323332
-4.04488e-06
0.000324823
-3.39693e-06
0.000326381
-2.76378e-06
0.000328009
-2.15016e-06
0.000329709
-1.5605e-06
0.00033148
-9.9863e-07
0.000333318
-4.68605e-07
0.000335215
2.61339e-08
0.000337165
4.82451e-07
8.99078e-07
0.000339156
0.000240278
-1.79023e-06
0.000240578
-3.58687e-06
0.00024102
-5.16956e-06
0.000241591
-6.58738e-06
0.000242281
-7.86852e-06
0.000243079
-9.03094e-06
0.000243976
-1.00897e-05
0.000244964
-1.10578e-05
0.000246035
-1.1946e-05
0.000247183
-1.2763e-05
0.000248401
-1.35162e-05
0.000249683
-1.42115e-05
0.000251025
-1.48542e-05
0.000252421
-1.54485e-05
0.000253868
-1.59982e-05
0.00025536
-1.65064e-05
0.000256893
-1.69758e-05
0.000258465
-1.74087e-05
0.000260071
-1.7807e-05
0.000261709
-1.81724e-05
0.000263374
-1.85064e-05
0.000265065
-1.88103e-05
0.000266778
-1.90853e-05
0.000268509
-1.93321e-05
0.000270258
-1.95518e-05
0.00027202
-1.9745e-05
0.000273794
-1.99124e-05
0.000275576
-2.00546e-05
0.000277365
-2.01721e-05
0.000279158
-2.02653e-05
0.000280953
-2.03346e-05
0.000282748
-2.03804e-05
0.00028454
-2.0403e-05
0.000286328
-2.04027e-05
0.000288109
-2.03797e-05
0.000289882
-2.03343e-05
0.000291645
-2.02667e-05
0.000293395
-2.0177e-05
0.000295132
-2.00655e-05
0.000296854
-1.99322e-05
0.000298558
-1.97772e-05
0.000300244
-1.96008e-05
0.00030191
-1.94029e-05
0.000303554
-1.91838e-05
0.000305177
-1.89433e-05