/*--------------------------------*- C++ -*----------------------------------*\
| =========                 |                                                 |
| \\      /  F ield         | OpenFOAM: The Open Source CFD Toolbox           |
|  \\    /   O peration     | Version:  2106                                  |
|   \\  /    A nd           | Website:  www.openfoam.com                      |
|    \\/     M anipulation  |                                                 |
\*---------------------------------------------------------------------------*/
FoamFile
{
    version     2.0;
    format      ascii;
    arch        "LSB;label=32;scalar=64";
    class       volScalarField;
    location    "5.2";
    object      T;
}
// * * * * * * * * * * * * * * * * * * * * * * * * * * * * * * * * * * * * * //

dimensions      [0 0 0 1 0 0 0];

internalField   nonuniform List<scalar> 
12013
(
300.003
300.01
300.016
300.023
300.031
300.038
300.046
300.054
300.063
300.072
300.081
300.091
300.101
300.112
300.122
300.134
300.146
300.158
300.171
300.184
300.198
300.212
300.227
300.242
300.258
300.274
300.291
300.309
300.327
300.346
300.365
300.385
300.406
300.427
300.449
300.472
300.495
300.52
300.544
300.57
300.596
300.624
300.651
300.68
300.71
300.74
300.772
300.804
300.837
300.871
300.906
300.942
300.979
301.017
301.057
301.097
301.139
301.182
301.226
301.271
301.318
301.366
301.416
301.467
301.52
301.575
301.631
301.69
301.751
301.814
301.88
301.949
302.021
302.097
302.177
302.262
302.353
302.452
302.562
302.686
302.833
300.003
300.01
300.016
300.023
300.031
300.038
300.046
300.054
300.063
300.072
300.081
300.091
300.101
300.112
300.122
300.134
300.146
300.158
300.171
300.184
300.198
300.212
300.227
300.242
300.258
300.274
300.291
300.309
300.327
300.346
300.365
300.385
300.406
300.427
300.449
300.472
300.495
300.52
300.544
300.57
300.596
300.623
300.651
300.68
300.71
300.74
300.771
300.804
300.837
300.871
300.906
300.942
300.979
301.017
301.057
301.097
301.138
301.181
301.225
301.271
301.317
301.365
301.415
301.466
301.519
301.574
301.63
301.689
301.75
301.813
301.879
301.947
302.019
302.094
302.174
302.258
302.347
302.444
302.549
302.664
302.791
300.003
300.01
300.016
300.023
300.03
300.038
300.046
300.054
300.063
300.072
300.081
300.091
300.101
300.112
300.122
300.134
300.146
300.158
300.171
300.184
300.198
300.212
300.227
300.242
300.258
300.274
300.291
300.309
300.327
300.346
300.365
300.385
300.406
300.427
300.449
300.472
300.495
300.519
300.544
300.57
300.596
300.623
300.651
300.68
300.71
300.74
300.771
300.803
300.837
300.871
300.906
300.942
300.979
301.017
301.056
301.096
301.138
301.18
301.224
301.27
301.316
301.364
301.414
301.465
301.518
301.572
301.628
301.687
301.747
301.81
301.875
301.943
302.014
302.088
302.166
302.248
302.335
302.427
302.525
302.628
302.737
300.003
300.01
300.016
300.023
300.03
300.038
300.046
300.054
300.063
300.072
300.081
300.091
300.101
300.111
300.122
300.134
300.146
300.158
300.171
300.184
300.198
300.212
300.227
300.242
300.258
300.274
300.291
300.309
300.327
300.346
300.365
300.385
300.406
300.427
300.449
300.472
300.495
300.519
300.544
300.57
300.596
300.623
300.651
300.68
300.709
300.74
300.771
300.803
300.836
300.87
300.905
300.941
300.978
301.016
301.055
301.095
301.137
301.179
301.223
301.268
301.315
301.362
301.412
301.462
301.515
301.569
301.625
301.683
301.743
301.805
301.869
301.936
302.005
302.078
302.153
302.232
302.315
302.402
302.492
302.585
302.679
300.003
300.01
300.016
300.023
300.03
300.038
300.046
300.054
300.063
300.072
300.081
300.091
300.101
300.111
300.122
300.134
300.146
300.158
300.171
300.184
300.198
300.212
300.227
300.242
300.258
300.274
300.291
300.309
300.327
300.346
300.365
300.385
300.406
300.427
300.449
300.472
300.495
300.519
300.544
300.569
300.596
300.623
300.651
300.679
300.709
300.739
300.77
300.802
300.835
300.869
300.904
300.94
300.977
301.015
301.054
301.094
301.135
301.177
301.221
301.266
301.312
301.36
301.409
301.459
301.511
301.565
301.62
301.677
301.736
301.797
301.86
301.926
301.993
302.064
302.136
302.212
302.29
302.371
302.453
302.537
302.62
300.003
300.01
300.016
300.023
300.03
300.038
300.046
300.054
300.063
300.072
300.081
300.091
300.101
300.111
300.122
300.134
300.146
300.158
300.171
300.184
300.198
300.212
300.227
300.242
300.258
300.274
300.291
300.309
300.327
300.346
300.365
300.385
300.405
300.427
300.449
300.471
300.495
300.519
300.543
300.569
300.595
300.622
300.65
300.679
300.708
300.738
300.769
300.801
300.834
300.868
300.903
300.939
300.975
301.013
301.052
301.092
301.133
301.175
301.218
301.263
301.309
301.356
301.404
301.454
301.506
301.559
301.613
301.669
301.727
301.787
301.849
301.912
301.978
302.045
302.115
302.187
302.26
302.335
302.41
302.486
302.56
300.003
300.01
300.016
300.023
300.03
300.038
300.046
300.054
300.063
300.072
300.081
300.091
300.101
300.111
300.122
300.134
300.146
300.158
300.171
300.184
300.198
300.212
300.227
300.242
300.258
300.274
300.291
300.308
300.327
300.345
300.365
300.385
300.405
300.426
300.448
300.471
300.494
300.518
300.543
300.568
300.595
300.621
300.649
300.678
300.707
300.737
300.768
300.8
300.833
300.867
300.901
300.937
300.973
301.011
301.05
301.089
301.13
301.172
301.215
301.259
301.304
301.351
301.399
301.448
301.499
301.551
301.605
301.66
301.716
301.774
301.834
301.896
301.959
302.023
302.089
302.157
302.225
302.294
302.364
302.432
302.5
300.003
300.01
300.016
300.023
300.03
300.038
300.046
300.054
300.063
300.072
300.081
300.091
300.101
300.111
300.122
300.134
300.145
300.158
300.17
300.184
300.197
300.212
300.226
300.242
300.257
300.274
300.291
300.308
300.326
300.345
300.364
300.384
300.405
300.426
300.448
300.47
300.494
300.518
300.542
300.568
300.594
300.621
300.648
300.677
300.706
300.736
300.767
300.799
300.831
300.865
300.899
300.935
300.971
301.008
301.047
301.086
301.126
301.168
301.21
301.254
301.299
301.345
301.392
301.441
301.49
301.541
301.594
301.647
301.702
301.759
301.817
301.876
301.936
301.997
302.06
302.123
302.187
302.251
302.315
302.378
302.44
300.003
300.01
300.016
300.023
300.03
300.038
300.046
300.054
300.063
300.072
300.081
300.091
300.101
300.111
300.122
300.134
300.145
300.158
300.17
300.184
300.197
300.211
300.226
300.241
300.257
300.274
300.29
300.308
300.326
300.345
300.364
300.384
300.404
300.425
300.447
300.47
300.493
300.517
300.541
300.567
300.593
300.619
300.647
300.675
300.704
300.734
300.765
300.797
300.829
300.862
300.897
300.932
300.968
301.005
301.043
301.082
301.122
301.163
301.205
301.248
301.292
301.337
301.384
301.431
301.48
301.53
301.581
301.633
301.686
301.74
301.796
301.852
301.91
301.968
302.027
302.086
302.146
302.205
302.264
302.322
302.379
300.003
300.01
300.016
300.023
300.03
300.038
300.046
300.054
300.063
300.072
300.081
300.091
300.101
300.111
300.122
300.133
300.145
300.157
300.17
300.183
300.197
300.211
300.226
300.241
300.257
300.273
300.29
300.308
300.326
300.344
300.363
300.383
300.404
300.425
300.447
300.469
300.492
300.516
300.54
300.566
300.591
300.618
300.645
300.674
300.703
300.732
300.763
300.794
300.827
300.86
300.894
300.928
300.964
301.001
301.038
301.077
301.116
301.156
301.198
301.24
301.284
301.328
301.373
301.42
301.467
301.516
301.565
301.615
301.667
301.719
301.772
301.826
301.88
301.935
301.991
302.046
302.101
302.156
302.211
302.265
302.317
300.003
300.01
300.016
300.023
300.03
300.038
300.046
300.054
300.063
300.072
300.081
300.09
300.101
300.111
300.122
300.133
300.145
300.157
300.17
300.183
300.197
300.211
300.226
300.241
300.257
300.273
300.29
300.307
300.325
300.344
300.363
300.383
300.403
300.424
300.446
300.468
300.491
300.515
300.539
300.564
300.59
300.616
300.644
300.672
300.7
300.73
300.76
300.791
300.823
300.856
300.89
300.924
300.959
300.995
301.032
301.07
301.109
301.149
301.19
301.231
301.274
301.317
301.361
301.406
301.452
301.499
301.547
301.596
301.645
301.695
301.745
301.797
301.848
301.9
301.952
302.003
302.055
302.106
302.157
302.207
302.255
300.003
300.01
300.016
300.023
300.03
300.038
300.046
300.054
300.063
300.071
300.081
300.09
300.1
300.111
300.122
300.133
300.145
300.157
300.17
300.183
300.197
300.211
300.225
300.24
300.256
300.272
300.289
300.306
300.324
300.343
300.362
300.382
300.402
300.423
300.445
300.467
300.49
300.513
300.537
300.562
300.588
300.614
300.641
300.669
300.698
300.727
300.757
300.788
300.819
300.852
300.885
300.919
300.954
300.989
301.026
301.063
301.101
301.14
301.18
301.22
301.262
301.304
301.347
301.391
301.435
301.481
301.527
301.573
301.62
301.668
301.716
301.764
301.813
301.861
301.91
301.958
302.007
302.054
302.101
302.147
302.193
300.003
300.009
300.016
300.023
300.03
300.038
300.046
300.054
300.062
300.071
300.081
300.09
300.1
300.111
300.122
300.133
300.145
300.157
300.169
300.183
300.196
300.21
300.225
300.24
300.256
300.272
300.288
300.306
300.324
300.342
300.361
300.381
300.401
300.422
300.443
300.465
300.488
300.511
300.536
300.56
300.586
300.612
300.639
300.666
300.694
300.723
300.753
300.784
300.815
300.847
300.879
300.913
300.947
300.982
301.018
301.054
301.092
301.13
301.168
301.208
301.248
301.289
301.331
301.373
301.416
301.46
301.504
301.548
301.593
301.638
301.684
301.729
301.775
301.821
301.866
301.911
301.956
302.001
302.045
302.088
302.13
300.003
300.009
300.016
300.023
300.03
300.038
300.046
300.054
300.062
300.071
300.08
300.09
300.1
300.111
300.121
300.133
300.144
300.156
300.169
300.182
300.196
300.21
300.224
300.239
300.255
300.271
300.288
300.305
300.323
300.341
300.36
300.379
300.4
300.42
300.442
300.464
300.486
300.509
300.533
300.558
300.583
300.609
300.635
300.663
300.691
300.719
300.748
300.779
300.809
300.841
300.873
300.906
300.939
300.974
301.009
301.044
301.081
301.118
301.155
301.194
301.233
301.272
301.313
301.353
301.394
301.436
301.478
301.52
301.563
301.606
301.649
301.692
301.735
301.778
301.82
301.863
301.905
301.946
301.987
302.027
302.066
300.003
300.009
300.016
300.023
300.03
300.038
300.046
300.054
300.062
300.071
300.08
300.09
300.1
300.11
300.121
300.132
300.144
300.156
300.169
300.182
300.195
300.209
300.224
300.239
300.254
300.27
300.287
300.304
300.322
300.34
300.359
300.378
300.398
300.419
300.44
300.461
300.484
300.507
300.531
300.555
300.58
300.605
300.632
300.658
300.686
300.714
300.743
300.773
300.803
300.834
300.865
300.897
300.93
300.964
300.998
301.033
301.068
301.104
301.141
301.178
301.215
301.253
301.292
301.331
301.37
301.41
301.45
301.49
301.531
301.571
301.612
301.652
301.693
301.733
301.773
301.812
301.851
301.89
301.928
301.965
302.002
300.003
300.009
300.016
300.023
300.03
300.038
300.045
300.054
300.062
300.071
300.08
300.09
300.1
300.11
300.121
300.132
300.144
300.156
300.168
300.181
300.195
300.209
300.223
300.238
300.253
300.269
300.286
300.303
300.32
300.338
300.357
300.376
300.396
300.416
300.437
300.459
300.481
300.504
300.527
300.551
300.576
300.601
300.627
300.654
300.681
300.708
300.737
300.766
300.795
300.826
300.857
300.888
300.92
300.953
300.986
301.02
301.054
301.089
301.124
301.16
301.196
301.232
301.269
301.307
301.344
301.382
301.42
301.458
301.496
301.535
301.573
301.611
301.649
301.686
301.723
301.76
301.797
301.833
301.868
301.903
301.938
300.003
300.009
300.016
300.023
300.03
300.037
300.045
300.053
300.062
300.071
300.08
300.089
300.099
300.11
300.12
300.131
300.143
300.155
300.168
300.18
300.194
300.208
300.222
300.237
300.252
300.268
300.284
300.301
300.319
300.337
300.355
300.374
300.394
300.414
300.435
300.456
300.478
300.501
300.524
300.547
300.572
300.596
300.622
300.648
300.675
300.702
300.73
300.758
300.787
300.816
300.847
300.877
300.908
300.94
300.972
301.005
301.038
301.071
301.105
301.14
301.174
301.209
301.245
301.28
301.316
301.352
301.388
301.424
301.46
301.496
301.532
301.567
301.603
301.638
301.673
301.707
301.741
301.775
301.808
301.841
301.873
300.003
300.009
300.016
300.023
300.03
300.037
300.045
300.053
300.062
300.07
300.08
300.089
300.099
300.109
300.12
300.131
300.142
300.154
300.167
300.18
300.193
300.207
300.221
300.236
300.251
300.267
300.283
300.3
300.317
300.335
300.353
300.372
300.391
300.411
300.432
300.453
300.474
300.497
300.519
300.543
300.567
300.591
300.616
300.641
300.668
300.694
300.721
300.749
300.777
300.806
300.835
300.865
300.895
300.926
300.957
300.988
301.02
301.053
301.085
301.118
301.151
301.184
301.218
301.252
301.286
301.32
301.354
301.387
301.421
301.455
301.489
301.522
301.555
301.588
301.621
301.653
301.685
301.716
301.747
301.778
301.808
300.003
300.009
300.016
300.023
300.03
300.037
300.045
300.053
300.061
300.07
300.079
300.089
300.098
300.109
300.119
300.13
300.142
300.154
300.166
300.179
300.192
300.206
300.22
300.234
300.249
300.265
300.281
300.298
300.315
300.332
300.351
300.369
300.388
300.408
300.428
300.449
300.47
300.492
300.514
300.537
300.561
300.585
300.609
300.634
300.66
300.686
300.712
300.739
300.766
300.794
300.823
300.851
300.881
300.91
300.94
300.97
301.001
301.032
301.063
301.094
301.126
301.158
301.189
301.221
301.253
301.285
301.317
301.349
301.381
301.413
301.444
301.476
301.507
301.538
301.568
301.598
301.628
301.657
301.686
301.715
301.743
300.003
300.009
300.016
300.023
300.03
300.037
300.045
300.053
300.061
300.07
300.079
300.088
300.098
300.108
300.119
300.13
300.141
300.153
300.165
300.178
300.191
300.204
300.218
300.233
300.248
300.263
300.279
300.296
300.312
300.33
300.348
300.366
300.385
300.404
300.424
300.445
300.466
300.487
300.509
300.531
300.554
300.578
300.601
300.626
300.651
300.676
300.702
300.728
300.754
300.781
300.809
300.836
300.864
300.893
300.922
300.951
300.98
301.009
301.039
301.069
301.099
301.129
301.159
301.189
301.219
301.25
301.28
301.31
301.34
301.369
301.399
301.428
301.457
301.486
301.514
301.542
301.57
301.598
301.625
301.651
301.677
300.003
300.009
300.016
300.022
300.03
300.037
300.044
300.052
300.061
300.069
300.078
300.088
300.097
300.107
300.118
300.129
300.14
300.152
300.164
300.176
300.189
300.203
300.217
300.231
300.246
300.261
300.277
300.293
300.31
300.327
300.344
300.362
300.381
300.4
300.42
300.44
300.46
300.481
300.503
300.524
300.547
300.57
300.593
300.616
300.641
300.665
300.69
300.715
300.741
300.767
300.793
300.82
300.847
300.874
300.902
300.929
300.957
300.985
301.013
301.042
301.07
301.098
301.127
301.155
301.184
301.212
301.24
301.269
301.297
301.324
301.352
301.379
301.407
301.433
301.46
301.486
301.512
301.538
301.563
301.588
301.612
300.003
300.009
300.016
300.022
300.029
300.037
300.044
300.052
300.06
300.069
300.078
300.087
300.097
300.107
300.117
300.128
300.139
300.151
300.163
300.175
300.188
300.201
300.215
300.229
300.244
300.259
300.274
300.29
300.306
300.323
300.341
300.358
300.377
300.395
300.414
300.434
300.454
300.474
300.495
300.517
300.538
300.561
300.583
300.606
300.629
300.653
300.677
300.702
300.726
300.751
300.776
300.802
300.828
300.854
300.88
300.906
300.933
300.959
300.986
301.013
301.04
301.067
301.093
301.12
301.147
301.174
301.2
301.226
301.253
301.279
301.304
301.33
301.355
301.38
301.405
301.43
301.454
301.478
301.501
301.524
301.547
300.003
300.009
300.016
300.022
300.029
300.036
300.044
300.052
300.06
300.068
300.077
300.086
300.096
300.106
300.116
300.127
300.138
300.149
300.161
300.173
300.186
300.199
300.213
300.227
300.241
300.256
300.271
300.287
300.303
300.319
300.336
300.354
300.372
300.39
300.409
300.428
300.447
300.467
300.487
300.508
300.529
300.551
300.573
300.595
300.617
300.64
300.663
300.687
300.71
300.734
300.758
300.783
300.807
300.832
300.857
300.882
300.907
300.932
300.957
300.983
301.008
301.033
301.059
301.084
301.109
301.134
301.159
301.183
301.208
301.232
301.256
301.28
301.304
301.327
301.35
301.373
301.395
301.418
301.439
301.461
301.482
300.003
300.009
300.015
300.022
300.029
300.036
300.043
300.051
300.059
300.068
300.077
300.086
300.095
300.105
300.115
300.126
300.137
300.148
300.16
300.172
300.184
300.197
300.21
300.224
300.238
300.253
300.268
300.283
300.299
300.315
300.332
300.349
300.366
300.384
300.402
300.421
300.44
300.459
300.479
300.499
300.519
300.54
300.561
300.582
300.604
300.626
300.648
300.67
300.693
300.716
300.739
300.762
300.785
300.809
300.833
300.856
300.88
300.904
300.928
300.951
300.975
300.999
301.023
301.046
301.07
301.093
301.116
301.139
301.162
301.185
301.207
301.23
301.252
301.273
301.295
301.316
301.337
301.358
301.378
301.398
301.418
300.003
300.009
300.015
300.022
300.029
300.036
300.043
300.051
300.059
300.067
300.076
300.085
300.094
300.104
300.114
300.124
300.135
300.146
300.158
300.17
300.182
300.195
300.208
300.221
300.235
300.249
300.264
300.279
300.294
300.31
300.326
300.343
300.36
300.377
300.395
300.413
300.431
300.45
300.469
300.488
300.508
300.528
300.548
300.569
300.589
300.61
300.632
300.653
300.675
300.696
300.718
300.74
300.763
300.785
300.807
300.829
300.852
300.874
300.897
300.919
300.941
300.964
300.986
301.008
301.03
301.052
301.073
301.095
301.116
301.137
301.158
301.179
301.2
301.22
301.24
301.26
301.279
301.298
301.317
301.336
301.355
300.003
300.009
300.015
300.022
300.028
300.035
300.043
300.05
300.058
300.066
300.075
300.084
300.093
300.102
300.112
300.123
300.133
300.144
300.156
300.167
300.179
300.192
300.205
300.218
300.231
300.245
300.26
300.274
300.289
300.305
300.32
300.336
300.353
300.37
300.387
300.404
300.422
300.44
300.458
300.477
300.496
300.515
300.535
300.554
300.574
300.594
300.614
300.635
300.655
300.676
300.697
300.718
300.738
300.759
300.78
300.802
300.823
300.844
300.865
300.886
300.907
300.927
300.948
300.969
300.989
301.01
301.03
301.05
301.07
301.09
301.109
301.128
301.148
301.166
301.185
301.203
301.222
301.24
301.257
301.275
301.292
300.003
300.009
300.015
300.021
300.028
300.035
300.042
300.05
300.057
300.065
300.074
300.083
300.092
300.101
300.111
300.121
300.131
300.142
300.153
300.165
300.176
300.189
300.201
300.214
300.227
300.241
300.255
300.269
300.284
300.299
300.314
300.33
300.345
300.362
300.378
300.395
300.412
300.43
300.447
300.465
300.483
300.502
300.52
300.539
300.558
300.577
300.596
300.615
300.635
300.654
300.674
300.694
300.713
300.733
300.753
300.773
300.793
300.812
300.832
300.852
300.871
300.891
300.91
300.93
300.949
300.968
300.987
301.005
301.024
301.042
301.06
301.078
301.096
301.114
301.131
301.148
301.165
301.182
301.198
301.214
301.23
300.003
300.009
300.015
300.021
300.028
300.034
300.041
300.049
300.057
300.064
300.073
300.081
300.09
300.099
300.109
300.119
300.129
300.14
300.151
300.162
300.173
300.185
300.197
300.21
300.223
300.236
300.25
300.263
300.278
300.292
300.307
300.322
300.337
300.353
300.369
300.385
300.402
300.418
300.435
300.452
300.47
300.487
300.505
300.523
300.541
300.559
300.577
300.595
300.614
300.632
300.651
300.669
300.688
300.706
300.725
300.744
300.762
300.781
300.799
300.818
300.836
300.854
300.872
300.89
300.908
300.926
300.943
300.961
300.978
300.995
301.012
301.028
301.045
301.061
301.077
301.093
301.109
301.125
301.14
301.155
301.17
300.003
300.009
300.014
300.021
300.027
300.034
300.041
300.048
300.056
300.063
300.072
300.08
300.089
300.098
300.107
300.117
300.127
300.137
300.148
300.159
300.17
300.181
300.193
300.206
300.218
300.231
300.244
300.257
300.271
300.285
300.299
300.314
300.329
300.344
300.359
300.375
300.39
300.406
300.422
300.439
300.455
300.472
300.489
300.506
300.523
300.54
300.557
300.574
300.592
300.609
300.627
300.644
300.662
300.679
300.697
300.714
300.731
300.749
300.766
300.783
300.8
300.817
300.834
300.851
300.867
300.884
300.9
300.916
300.932
300.948
300.964
300.979
300.995
301.01
301.025
301.04
301.054
301.069
301.083
301.097
301.111
300.003
300.008
300.014
300.02
300.027
300.033
300.04
300.047
300.055
300.062
300.07
300.078
300.087
300.096
300.105
300.114
300.124
300.134
300.145
300.155
300.166
300.177
300.189
300.201
300.213
300.225
300.238
300.251
300.264
300.278
300.291
300.305
300.32
300.334
300.349
300.364
300.379
300.394
300.409
300.425
300.44
300.456
300.472
300.488
300.504
300.521
300.537
300.553
300.569
300.586
300.602
300.619
300.635
300.651
300.668
300.684
300.7
300.717
300.733
300.749
300.765
300.78
300.796
300.812
300.827
300.843
300.858
300.873
300.888
300.903
300.917
300.932
300.946
300.96
300.974
300.988
301.001
301.014
301.028
301.041
301.053
300.003
300.008
300.014
300.02
300.026
300.033
300.039
300.046
300.054
300.061
300.069
300.077
300.085
300.094
300.103
300.112
300.121
300.131
300.141
300.152
300.162
300.173
300.184
300.196
300.208
300.22
300.232
300.244
300.257
300.27
300.283
300.296
300.31
300.324
300.338
300.352
300.366
300.381
300.395
300.41
300.425
300.44
300.455
300.47
300.486
300.501
300.516
300.532
300.547
300.562
300.578
300.593
300.609
300.624
300.639
300.654
300.67
300.685
300.7
300.715
300.73
300.744
300.759
300.774
300.788
300.802
300.816
300.83
300.844
300.858
300.871
300.885
300.898
300.911
300.924
300.937
300.949
300.962
300.974
300.986
300.998
300.003
300.008
300.014
300.019
300.026
300.032
300.038
300.045
300.052
300.06
300.067
300.075
300.083
300.092
300.1
300.109
300.119
300.128
300.138
300.148
300.158
300.169
300.179
300.191
300.202
300.213
300.225
300.237
300.249
300.262
300.274
300.287
300.3
300.313
300.327
300.34
300.354
300.368
300.382
300.396
300.41
300.424
300.438
300.452
300.467
300.481
300.496
300.51
300.524
300.539
300.553
300.568
300.582
300.597
300.611
300.625
300.639
300.654
300.668
300.681
300.695
300.709
300.723
300.736
300.75
300.763
300.776
300.789
300.802
300.815
300.827
300.84
300.852
300.864
300.876
300.888
300.9
300.911
300.923
300.934
300.945
300.003
300.008
300.013
300.019
300.025
300.031
300.038
300.044
300.051
300.058
300.066
300.073
300.081
300.089
300.098
300.107
300.115
300.125
300.134
300.144
300.154
300.164
300.174
300.185
300.196
300.207
300.218
300.23
300.242
300.253
300.266
300.278
300.29
300.303
300.315
300.328
300.341
300.354
300.367
300.381
300.394
300.407
300.421
300.434
300.448
300.462
300.475
300.489
300.502
300.516
300.529
300.543
300.557
300.57
300.583
300.597
300.61
300.623
300.636
300.649
300.662
300.675
300.688
300.7
300.713
300.725
300.737
300.75
300.761
300.773
300.785
300.797
300.808
300.819
300.831
300.842
300.852
300.863
300.874
300.884
300.894
300.003
300.008
300.013
300.019
300.024
300.03
300.037
300.043
300.05
300.057
300.064
300.071
300.079
300.087
300.095
300.104
300.112
300.121
300.13
300.14
300.149
300.159
300.169
300.18
300.19
300.201
300.211
300.223
300.234
300.245
300.257
300.268
300.28
300.292
300.304
300.316
300.329
300.341
300.354
300.366
300.379
300.391
300.404
300.417
300.43
300.442
300.455
300.468
300.481
300.494
300.506
300.519
300.532
300.544
300.557
300.569
300.582
300.594
300.606
300.618
300.63
300.642
300.654
300.666
300.678
300.689
300.701
300.712
300.723
300.734
300.745
300.756
300.766
300.777
300.787
300.798
300.808
300.818
300.828
300.837
300.847
300.002
300.007
300.013
300.018
300.024
300.03
300.036
300.042
300.049
300.055
300.062
300.07
300.077
300.085
300.093
300.101
300.109
300.118
300.127
300.136
300.145
300.154
300.164
300.174
300.184
300.194
300.205
300.215
300.226
300.237
300.248
300.259
300.27
300.282
300.293
300.305
300.317
300.328
300.34
300.352
300.364
300.376
300.388
300.4
300.412
300.424
300.436
300.448
300.46
300.472
300.484
300.496
300.508
300.52
300.532
300.543
300.555
300.566
300.578
300.589
300.601
300.612
300.623
300.634
300.645
300.655
300.666
300.677
300.687
300.697
300.708
300.718
300.728
300.737
300.747
300.757
300.766
300.775
300.785
300.794
300.803
300.002
300.007
300.012
300.018
300.023
300.029
300.035
300.041
300.047
300.054
300.061
300.068
300.075
300.082
300.09
300.098
300.106
300.114
300.123
300.132
300.141
300.15
300.159
300.169
300.178
300.188
300.198
300.208
300.219
300.229
300.239
300.25
300.261
300.272
300.283
300.294
300.305
300.316
300.327
300.339
300.35
300.361
300.373
300.384
300.395
300.407
300.418
300.43
300.441
300.452
300.464
300.475
300.486
300.497
300.508
300.519
300.53
300.541
300.552
300.562
300.573
300.583
300.594
300.604
300.614
300.624
300.634
300.644
300.654
300.664
300.673
300.683
300.692
300.701
300.71
300.719
300.728
300.737
300.745
300.754
300.762
300.002
300.007
300.012
300.017
300.023
300.028
300.034
300.04
300.046
300.053
300.059
300.066
300.073
300.08
300.088
300.095
300.103
300.111
300.12
300.128
300.137
300.145
300.154
300.164
300.173
300.182
300.192
300.202
300.212
300.222
300.232
300.242
300.252
300.263
300.273
300.284
300.294
300.305
300.316
300.326
300.337
300.348
300.359
300.37
300.38
300.391
300.402
300.413
300.424
300.434
300.445
300.456
300.466
300.477
300.487
300.497
300.508
300.518
300.528
300.538
300.548
300.558
300.568
300.578
300.587
300.597
300.606
300.615
300.625
300.634
300.643
300.651
300.66
300.669
300.677
300.686
300.694
300.702
300.71
300.718
300.726
300.002
300.007
300.012
300.017
300.022
300.027
300.033
300.039
300.045
300.051
300.058
300.064
300.071
300.078
300.086
300.093
300.101
300.108
300.116
300.125
300.133
300.142
300.15
300.159
300.168
300.177
300.186
300.196
300.205
300.215
300.225
300.235
300.244
300.254
300.265
300.275
300.285
300.295
300.305
300.316
300.326
300.336
300.347
300.357
300.367
300.378
300.388
300.398
300.408
300.419
300.429
300.439
300.449
300.459
300.469
300.479
300.488
300.498
300.508
300.517
300.527
300.536
300.545
300.555
300.564
300.573
300.582
300.59
300.599
300.608
300.616
300.625
300.633
300.641
300.649
300.657
300.665
300.673
300.68
300.688
300.695
300.002
300.007
300.012
300.016
300.022
300.027
300.032
300.038
300.044
300.05
300.056
300.063
300.07
300.077
300.084
300.091
300.098
300.106
300.114
300.122
300.13
300.138
300.147
300.155
300.164
300.173
300.182
300.191
300.2
300.21
300.219
300.229
300.238
300.248
300.258
300.267
300.277
300.287
300.297
300.307
300.317
300.327
300.337
300.347
300.356
300.366
300.376
300.386
300.396
300.406
300.416
300.425
300.435
300.444
300.454
300.463
300.473
300.482
300.491
300.5
300.51
300.519
300.527
300.536
300.545
300.554
300.562
300.57
300.579
300.587
300.595
300.603
300.611
300.619
300.627
300.634
300.642
300.649
300.656
300.664
300.671
300.002
300.007
300.011
300.016
300.021
300.027
300.032
300.038
300.043
300.049
300.056
300.062
300.069
300.075
300.082
300.089
300.097
300.104
300.112
300.12
300.128
300.136
300.144
300.153
300.161
300.17
300.179
300.188
300.197
300.206
300.215
300.224
300.233
300.243
300.252
300.262
300.271
300.281
300.291
300.3
300.31
300.32
300.329
300.339
300.349
300.358
300.368
300.377
300.387
300.397
300.406
300.415
300.425
300.434
300.443
300.452
300.462
300.471
300.479
300.488
300.497
300.506
300.514
300.523
300.531
300.54
300.548
300.556
300.564
300.572
300.58
300.588
300.595
300.603
300.61
300.618
300.625
300.632
300.639
300.646
300.653
300.002
300.007
300.011
300.016
300.021
300.026
300.032
300.037
300.043
300.049
300.055
300.061
300.068
300.075
300.082
300.089
300.096
300.103
300.111
300.119
300.126
300.135
300.143
300.151
300.159
300.168
300.177
300.186
300.194
300.203
300.213
300.222
300.231
300.24
300.25
300.259
300.268
300.278
300.287
300.297
300.306
300.316
300.325
300.335
300.344
300.354
300.363
300.373
300.382
300.392
300.401
300.41
300.419
300.428
300.437
300.446
300.455
300.464
300.473
300.482
300.49
300.499
300.507
300.516
300.524
300.532
300.54
300.548
300.556
300.564
300.572
300.579
300.587
300.594
300.602
300.609
300.616
300.623
300.63
300.637
300.643
303.029
303.158
303.236
303.308
303.372
303.424
303.459
303.499
303.538
303.576
303.607
303.642
303.677
303.711
303.745
303.778
303.809
303.837
303.866
303.896
303.925
303.955
303.985
304.014
304.043
304.072
304.099
304.127
304.155
304.182
304.209
304.236
304.262
304.289
304.315
304.34
304.366
304.391
304.416
304.441
304.466
304.49
304.515
304.542
304.568
304.593
304.616
304.641
304.667
304.693
304.717
304.739
304.763
304.787
304.812
304.838
304.863
304.888
304.913
304.937
304.957
304.979
305.002
305.026
305.05
305.074
305.097
305.121
305.144
305.167
305.19
305.212
305.234
305.257
305.278
305.3
305.322
305.343
305.364
305.387
305.412
305.436
305.456
305.477
305.496
305.515
305.536
305.559
305.581
305.6
305.617
305.637
305.659
305.678
305.698
305.72
305.74
305.757
305.778
305.796
305.812
305.831
305.847
305.864
305.883
305.903
305.92
305.933
305.949
305.963
305.978
305.994
306.011
306.028
306.042
306.053
306.067
306.081
306.095
306.107
306.116
306.126
306.138
306.148
306.158
306.165
306.172
306.18
306.187
306.193
306.198
306.202
306.205
306.207
306.207
306.206
306.204
306.2
306.195
306.188
306.179
306.169
306.157
306.143
306.126
306.108
306.086
306.062
306.035
306.002
305.963
305.922
305.881
305.835
305.783
305.723
305.659
305.55
305.45
305.325
305.163
302.927
303.041
303.13
303.205
303.271
303.326
303.373
303.416
303.458
303.498
303.534
303.571
303.607
303.642
303.677
303.71
303.742
303.773
303.804
303.834
303.864
303.895
303.925
303.954
303.984
304.013
304.042
304.07
304.098
304.126
304.153
304.181
304.207
304.234
304.261
304.287
304.313
304.338
304.364
304.389
304.414
304.439
304.465
304.491
304.517
304.542
304.567
304.592
304.618
304.643
304.667
304.691
304.715
304.74
304.765
304.79
304.815
304.84
304.865
304.889
304.911
304.933
304.957
304.98
305.004
305.028
305.052
305.075
305.099
305.122
305.145
305.168
305.19
305.213
305.235
305.257
305.279
305.301
305.322
305.345
305.37
305.393
305.414
305.435
305.455
305.474
305.495
305.518
305.539
305.559
305.577
305.598
305.619
305.639
305.659
305.68
305.7
305.719
305.739
305.757
305.774
305.793
305.809
305.827
305.846
305.865
305.882
305.896
305.912
305.927
305.942
305.958
305.975
305.991
306.006
306.018
306.031
306.045
306.059
306.071
306.081
306.092
306.103
306.113
306.123
306.13
306.138
306.146
306.153
306.159
306.164
306.168
306.171
306.173
306.173
306.172
306.17
306.167
306.161
306.155
306.146
306.136
306.124
306.109
306.093
306.074
306.053
306.028
306
305.968
305.929
305.888
305.846
305.799
305.745
305.684
305.614
305.509
305.404
305.273
305.095
302.845
302.945
303.031
303.107
303.173
303.232
303.283
303.331
303.376
303.417
303.457
303.495
303.533
303.569
303.605
303.64
303.673
303.705
303.737
303.769
303.8
303.831
303.861
303.891
303.921
303.951
303.98
304.009
304.038
304.066
304.094
304.122
304.149
304.176
304.203
304.229
304.256
304.282
304.308
304.334
304.359
304.385
304.411
304.437
304.463
304.489
304.514