/*--------------------------------*- C++ -*----------------------------------*\
| =========                 |                                                 |
| \\      /  F ield         | OpenFOAM: The Open Source CFD Toolbox           |
|  \\    /   O peration     | Version:  2106                                  |
|   \\  /    A nd           | Website:  www.openfoam.com                      |
|    \\/     M anipulation  |                                                 |
\*---------------------------------------------------------------------------*/
FoamFile
{
    version     2.0;
    format      ascii;
    arch        "LSB;label=32;scalar=64";
    class       volVectorField;
    location    "5.2";
    object      U;
}
// * * * * * * * * * * * * * * * * * * * * * * * * * * * * * * * * * * * * * //

dimensions      [0 1 -1 0 0 0 0];

internalField   nonuniform List<vector> 
12013
(
(0.100034 -9.55479e-06 0)
(0.100175 -1.76617e-05 0)
(0.100402 -2.51773e-05 0)
(0.100695 -3.21091e-05 0)
(0.101049 -3.86248e-05 0)
(0.101458 -4.4821e-05 0)
(0.101917 -5.07591e-05 0)
(0.102421 -5.6489e-05 0)
(0.102967 -6.20474e-05 0)
(0.103551 -6.74638e-05 0)
(0.104171 -7.27612e-05 0)
(0.104824 -7.79589e-05 0)
(0.105508 -8.30713e-05 0)
(0.10622 -8.81108e-05 0)
(0.106959 -9.30872e-05 0)
(0.107723 -9.80081e-05 0)
(0.10851 -0.000102879 0)
(0.109318 -0.000107705 0)
(0.110147 -0.00011249 0)
(0.110995 -0.000117233 0)
(0.111859 -0.000121938 0)
(0.11274 -0.000126604 0)
(0.113636 -0.00013123 0)
(0.114546 -0.000135814 0)
(0.115468 -0.000140355 0)
(0.116401 -0.000144848 0)
(0.117345 -0.000149291 0)
(0.118298 -0.000153679 0)
(0.119258 -0.000158006 0)
(0.120226 -0.000162267 0)
(0.1212 -0.000166456 0)
(0.122179 -0.000170566 0)
(0.123162 -0.000174588 0)
(0.124148 -0.000178514 0)
(0.125135 -0.000182334 0)
(0.126124 -0.000186039 0)
(0.127112 -0.000189616 0)
(0.128099 -0.000193054 0)
(0.129084 -0.000196337 0)
(0.130065 -0.000199452 0)
(0.131043 -0.000202382 0)
(0.132014 -0.000205108 0)
(0.132979 -0.000207609 0)
(0.133936 -0.000209864 0)
(0.134885 -0.000211846 0)
(0.135823 -0.000213528 0)
(0.136749 -0.000214878 0)
(0.137663 -0.000215859 0)
(0.138563 -0.000216432 0)
(0.139447 -0.000216549 0)
(0.140314 -0.000216158 0)
(0.141161 -0.000215197 0)
(0.141988 -0.000213597 0)
(0.142793 -0.000211275 0)
(0.143572 -0.000208135 0)
(0.144325 -0.000204066 0)
(0.145047 -0.000198932 0)
(0.145737 -0.000192576 0)
(0.146391 -0.000184805 0)
(0.147004 -0.000175389 0)
(0.147574 -0.000164044 0)
(0.148095 -0.00015042 0)
(0.148561 -0.000134083 0)
(0.148965 -0.000114483 0)
(0.1493 -9.09209e-05 0)
(0.149555 -6.24914e-05 0)
(0.149718 -2.801e-05 0)
(0.149774 1.41076e-05 0)
(0.149705 6.60647e-05 0)
(0.149486 0.000130938 0)
(0.149085 0.00021313 0)
(0.148459 0.000319113 0)
(0.147551 0.000458703 0)
(0.146277 0.000647254 0)
(0.144517 0.000909615 0)
(0.142092 0.0012874 0)
(0.138723 0.00185282 0)
(0.13395 0.0027388 0)
(0.127006 0.00423102 0)
(0.116842 0.00716554 0)
(0.105182 0.0154536 0)
(0.100032 -2.91741e-05 0)
(0.100171 -5.41505e-05 0)
(0.100397 -7.72334e-05 0)
(0.10069 -9.85064e-05 0)
(0.101043 -0.000118504 0)
(0.101451 -0.000137519 0)
(0.101909 -0.00015574 0)
(0.102412 -0.00017332 0)
(0.102957 -0.000190374 0)
(0.103541 -0.00020699 0)
(0.104159 -0.000223241 0)
(0.104811 -0.000239184 0)
(0.105494 -0.000254865 0)
(0.106205 -0.000270322 0)
(0.106943 -0.000285584 0)
(0.107706 -0.000300674 0)
(0.108492 -0.000315612 0)
(0.109299 -0.00033041 0)
(0.110126 -0.000345078 0)
(0.110973 -0.000359623 0)
(0.111836 -0.000374047 0)
(0.112716 -0.00038835 0)
(0.11361 -0.00040253 0)
(0.114518 -0.000416581 0)
(0.115438 -0.000430497 0)
(0.11637 -0.000444268 0)
(0.117312 -0.000457883 0)
(0.118263 -0.000471327 0)
(0.119222 -0.000484586 0)
(0.120188 -0.000497642 0)
(0.12116 -0.000510475 0)
(0.122137 -0.000523063 0)
(0.123118 -0.000535383 0)
(0.124101 -0.000547407 0)
(0.125087 -0.000559106 0)
(0.126073 -0.000570449 0)
(0.127059 -0.000581401 0)
(0.128044 -0.000591923 0)
(0.129026 -0.000601974 0)
(0.130005 -0.000611507 0)
(0.13098 -0.00062047 0)
(0.131949 -0.000628809 0)
(0.132911 -0.000636459 0)
(0.133866 -0.000643352 0)
(0.134812 -0.000649411 0)
(0.135747 -0.000654549 0)
(0.136671 -0.000658669 0)
(0.137582 -0.000661661 0)
(0.138479 -0.000663399 0)
(0.13936 -0.000663744 0)
(0.140224 -0.000662534 0)
(0.141069 -0.000659581 0)
(0.141893 -0.000654671 0)
(0.142695 -0.000647555 0)
(0.143472 -0.00063794 0)
(0.144221 -0.000625483 0)
(0.144942 -0.00060978 0)
(0.145629 -0.000590345 0)
(0.146281 -0.000566599 0)
(0.146894 -0.000537838 0)
(0.147463 -0.000503206 0)
(0.147983 -0.000461646 0)
(0.14845 -0.000411844 0)
(0.148856 -0.000352148 0)
(0.149194 -0.000280454 0)
(0.149455 -0.000194054 0)
(0.149627 -8.94115e-05 0)
(0.149696 3.81644e-05 0)
(0.149645 0.000195133 0)
(0.149452 0.000390389 0)
(0.14909 0.000636567 0)
(0.148522 0.00095198 0)
(0.147702 0.00136386 0)
(0.146563 0.00191378 0)
(0.14502 0.00266687 0)
(0.142956 0.00372752 0)
(0.140211 0.00526548 0)
(0.136567 0.00755877 0)
(0.131761 0.0110653 0)
(0.125809 0.0164506 0)
(0.120914 0.0240307 0)
(0.100029 -4.95884e-05 0)
(0.100167 -9.28831e-05 0)
(0.100391 -0.000132639 0)
(0.100682 -0.000169265 0)
(0.101033 -0.000203688 0)
(0.101439 -0.000236413 0)
(0.101895 -0.000267767 0)
(0.102397 -0.000298014 0)
(0.10294 -0.000327352 0)
(0.103521 -0.000355936 0)
(0.104138 -0.000383889 0)
(0.104788 -0.000411309 0)
(0.105468 -0.000438277 0)
(0.106177 -0.000464857 0)
(0.106913 -0.0004911 0)
(0.107673 -0.000517046 0)
(0.108456 -0.000542727 0)
(0.109261 -0.000568166 0)
(0.110086 -0.00059338 0)
(0.110929 -0.00061838 0)
(0.11179 -0.000643169 0)
(0.112666 -0.000667749 0)
(0.113558 -0.000692115 0)
(0.114462 -0.000716258 0)
(0.11538 -0.000740165 0)
(0.116308 -0.000763821 0)
(0.117246 -0.000787206 0)
(0.118194 -0.000810295 0)
(0.119149 -0.000833063 0)
(0.120111 -0.000855479 0)
(0.121079 -0.000877509 0)
(0.122052 -0.000899116 0)
(0.123029 -0.000920258 0)
(0.124008 -0.000940889 0)
(0.124989 -0.00096096 0)
(0.125971 -0.000980414 0)
(0.126952 -0.000999194 0)
(0.127932 -0.00101723 0)
(0.12891 -0.00103446 0)
(0.129884 -0.00105079 0)
(0.130854 -0.00106614 0)
(0.131817 -0.00108041 0)
(0.132775 -0.0010935 0)
(0.133724 -0.00110528 0)
(0.134664 -0.00111563 0)
(0.135594 -0.0011244 0)
(0.136512 -0.00113141 0)
(0.137417 -0.00113649 0)
(0.138308 -0.00113942 0)
(0.139184 -0.00113995 0)
(0.140042 -0.00113782 0)
(0.140881 -0.0011327 0)
(0.1417 -0.00112424 0)
(0.142496 -0.001112 0)
(0.143267 -0.0010955 0)
(0.144012 -0.00107414 0)
(0.144727 -0.00104726 0)
(0.14541 -0.00101402 0)
(0.146058 -0.000973468 0)
(0.146667 -0.000924414 0)
(0.147234 -0.000865429 0)
(0.147754 -0.000794758 0)
(0.148221 -0.000710224 0)
(0.14863 -0.000609107 0)
(0.148974 -0.000487964 0)
(0.149243 -0.000342393 0)
(0.14943 -0.0001667 0)
(0.14952 4.65717e-05 0)
(0.149501 0.000307541 0)
(0.149354 0.000629818 0)
(0.149058 0.00103237 0)
(0.148587 0.00154192 0)
(0.147909 0.00219675 0)
(0.146986 0.00305264 0)
(0.145775 0.00419193 0)
(0.144232 0.00573671 0)
(0.142324 0.00786593 0)
(0.140055 0.010832 0)
(0.137533 0.0149607 0)
(0.135169 0.0205204 0)
(0.13418 0.0269648 0)
(0.100026 -7.06213e-05 0)
(0.100162 -0.00013375 0)
(0.100383 -0.000191328 0)
(0.100671 -0.000244402 0)
(0.101019 -0.000294262 0)
(0.101423 -0.000341645 0)
(0.101876 -0.000387035 0)
(0.102374 -0.000430814 0)
(0.102914 -0.000473269 0)
(0.103492 -0.000514628 0)
(0.104106 -0.000555068 0)
(0.104753 -0.000594732 0)
(0.10543 -0.000633738 0)
(0.106135 -0.000672177 0)
(0.106867 -0.000710124 0)
(0.107624 -0.000747637 0)
(0.108403 -0.000784763 0)
(0.109204 -0.000821535 0)
(0.110025 -0.000857977 0)
(0.110864 -0.000894103 0)
(0.11172 -0.000929922 0)
(0.112592 -0.000965432 0)
(0.113478 -0.00100063 0)
(0.114378 -0.0010355 0)
(0.11529 -0.00107002 0)
(0.116214 -0.00110418 0)
(0.117147 -0.00113793 0)
(0.118089 -0.00117126 0)
(0.119038 -0.00120411 0)
(0.119995 -0.00123645 0)
(0.120957 -0.00126823 0)
(0.121923 -0.00129939 0)
(0.122894 -0.00132986 0)
(0.123867 -0.0013596 0)
(0.124841 -0.00138852 0)
(0.125816 -0.00141654 0)
(0.12679 -0.00144358 0)
(0.127763 -0.00146954 0)
(0.128733 -0.00149432 0)
(0.1297 -0.0015178 0)
(0.130662 -0.00153986 0)
(0.131618 -0.00156035 0)
(0.132567 -0.00157913 0)
(0.133508 -0.00159602 0)
(0.13444 -0.00161083 0)
(0.135361 -0.00162335 0)
(0.136271 -0.00163335 0)
(0.137168 -0.00164054 0)
(0.13805 -0.00164464 0)
(0.138917 -0.00164529 0)
(0.139767 -0.0016421 0)
(0.140597 -0.00163462 0)
(0.141408 -0.00162233 0)
(0.142196 -0.00160464 0)
(0.142959 -0.00158083 0)
(0.143696 -0.00155011 0)
(0.144404 -0.00151149 0)
(0.145081 -0.00146385 0)
(0.145723 -0.00140581 0)
(0.146328 -0.00133576 0)
(0.146892 -0.0012517 0)
(0.147411 -0.00115123 0)
(0.147879 -0.00103138 0)
(0.148293 -0.000888463 0)
(0.148645 -0.000717862 0)
(0.14893 -0.000513731 0)
(0.149138 -0.000268592 0)
(0.149261 2.72127e-05 0)
(0.149288 0.000386083 0)
(0.149206 0.000824892 0)
(0.149002 0.00136614 0)
(0.148663 0.00204026 0)
(0.148172 0.00288883 0)
(0.147519 0.0039688 0)
(0.146699 0.00535792 0)
(0.145725 0.00716047 0)
(0.144642 0.00950994 0)
(0.14356 0.012559 0)
(0.142693 0.016434 0)
(0.14241 0.0210825 0)
(0.143241 0.025849 0)
(0.100024 -9.22785e-05 0)
(0.100157 -0.000176674 0)
(0.100373 -0.000253262 0)
(0.100657 -0.000323936 0)
(0.101002 -0.000390304 0)
(0.101401 -0.00045335 0)
(0.101851 -0.000513728 0)
(0.102345 -0.000571949 0)
(0.102881 -0.000628398 0)
(0.103455 -0.000683378 0)
(0.104064 -0.000737126 0)
(0.104706 -0.000789835 0)
(0.105379 -0.000841658 0)
(0.106079 -0.000892721 0)
(0.106806 -0.000943121 0)
(0.107558 -0.000992938 0)
(0.108332 -0.00104223 0)
(0.109127 -0.00109104 0)
(0.109942 -0.00113941 0)
(0.110776 -0.00118735 0)
(0.111626 -0.00123488 0)
(0.112492 -0.00128198 0)
(0.113372 -0.00132866 0)
(0.114265 -0.0013749 0)
(0.11517 -0.00142066 0)
(0.116086 -0.00146593 0)
(0.117012 -0.00151066 0)
(0.117947 -0.00155481 0)
(0.118889 -0.00159832 0)
(0.119837 -0.00164114 0)
(0.120791 -0.0016832 0)
(0.121749 -0.00172443 0)
(0.122711 -0.00176475 0)
(0.123675 -0.00180406 0)
(0.124641 -0.00184229 0)
(0.125606 -0.00187931 0)
(0.126571 -0.00191501 0)
(0.127534 -0.00194927 0)
(0.128495 -0.00198195 0)
(0.129451 -0.0020129 0)
(0.130403 -0.00204195 0)
(0.131348 -0.00206892 0)
(0.132287 -0.0020936 0)
(0.133217 -0.00211577 0)
(0.134138 -0.00213517 0)
(0.135049 -0.00215154 0)
(0.135947 -0.00216455 0)
(0.136833 -0.00217386 0)
(0.137704 -0.00217907 0)
(0.13856 -0.00217972 0)
(0.139398 -0.00217531 0)
(0.140218 -0.00216526 0)
(0.141018 -0.00214889 0)
(0.141795 -0.00212542 0)
(0.142548 -0.00209396 0)
(0.143276 -0.00205347 0)
(0.143975 -0.0020027 0)
(0.144644 -0.00194023 0)
(0.14528 -0.00186432 0)
(0.14588 -0.00177293 0)
(0.146441 -0.00166359 0)
(0.146959 -0.00153333 0)
(0.147431 -0.00137851 0)
(0.147852 -0.00119468 0)
(0.148217 -0.000976301 0)
(0.148523 -0.000716508 0)
(0.148761 -0.000406647 0)
(0.148927 -3.57889e-05 0)
(0.149014 0.000409645 0)
(0.149015 0.000947494 0)
(0.148926 0.00160069 0)
(0.148742 0.00239877 0)
(0.148464 0.00337974 0)
(0.148101 0.00459196 0)
(0.147673 0.00609553 0)
(0.147223 0.00796176 0)
(0.146828 0.0102671 0)
(0.146613 0.0130741 0)
(0.146765 0.0163859 0)
(0.147521 0.0200494 0)
(0.149091 0.0235907 0)
(0.100021 -0.000114567 0)
(0.100151 -0.00022158 0)
(0.100363 -0.000318393 0)
(0.100642 -0.000407853 0)
(0.100982 -0.000491851 0)
(0.101377 -0.000571615 0)
(0.101821 -0.000647984 0)
(0.10231 -0.000721603 0)
(0.10284 -0.000792964 0)
(0.103409 -0.000862449 0)
(0.104013 -0.000930363 0)
(0.104649 -0.000996948 0)
(0.105316 -0.0010624 0)
(0.10601 -0.00112688 0)
(0.106731 -0.0011905 0)
(0.107476 -0.00125338 0)
(0.108243 -0.00131558 0)
(0.109031 -0.00137717 0)
(0.109839 -0.00143817 0)
(0.110665 -0.00149863 0)
(0.111507 -0.00155854 0)
(0.112365 -0.00161791 0)
(0.113237 -0.00167673 0)
(0.114122 -0.00173498 0)
(0.115019 -0.00179262 0)
(0.115926 -0.00184962 0)
(0.116842 -0.00190592 0)
(0.117767 -0.00196147 0)
(0.1187 -0.0020162 0)
(0.119638 -0.00207004 0)
(0.120582 -0.00212291 0)
(0.12153 -0.00217471 0)
(0.122481 -0.00222534 0)
(0.123434 -0.0022747 0)
(0.124388 -0.00232265 0)
(0.125342 -0.00236907 0)
(0.126295 -0.00241382 0)
(0.127246 -0.00245673 0)
(0.128194 -0.00249763 0)
(0.129138 -0.00253632 0)
(0.130077 -0.00257261 0)
(0.131009 -0.00260626 0)
(0.131935 -0.00263701 0)
(0.132852 -0.0026646 0)
(0.133759 -0.00268869 0)
(0.134656 -0.00270895 0)
(0.135541 -0.00272499 0)
(0.136413 -0.00273638 0)
(0.137271 -0.00274261 0)
(0.138113 -0.00274315 0)
(0.138938 -0.00273737 0)
(0.139744 -0.00272454 0)
(0.140531 -0.00270386 0)
(0.141295 -0.00267438 0)
(0.142037 -0.00263501 0)
(0.142753 -0.0025845 0)
(0.143443 -0.00252139 0)
(0.144103 -0.00244395 0)
(0.144732 -0.00235016 0)
(0.145326 -0.00223762 0)
(0.145885 -0.00210349 0)
(0.146404 -0.00194434 0)
(0.146882 -0.00175608 0)
(0.147314 -0.00153372 0)
(0.147697 -0.00127122 0)
(0.148029 -0.000961178 0)
(0.148305 -0.000594532 0)
(0.148523 -0.000160145 0)
(0.148682 0.000355651 0)
(0.148778 0.000969413 0)
(0.148815 0.00170179 0)
(0.148797 0.00257792 0)
(0.148735 0.00362791 0)
(0.14865 0.0048868 0)
(0.148573 0.00639337 0)
(0.148557 0.00818656 0)
(0.148675 0.0102974 0)
(0.149032 0.0127329 0)
(0.149754 0.015447 0)
(0.150972 0.0182955 0)
(0.152756 0.0209859 0)
(0.100018 -0.000137497 0)
(0.100145 -0.000268408 0)
(0.100352 -0.00038667 0)
(0.100626 -0.00049612 0)
(0.10096 -0.000598908 0)
(0.101349 -0.00069649 0)
(0.101786 -0.000789895 0)
(0.102269 -0.00087991 0)
(0.102793 -0.00096714 0)
(0.103355 -0.00105205 0)
(0.103952 -0.00113502 0)
(0.104581 -0.00121635 0)
(0.105241 -0.00129627 0)
(0.105928 -0.00137497 0)
(0.10664 -0.00145262 0)
(0.107377 -0.00152933 0)
(0.108136 -0.0016052 0)
(0.108916 -0.0016803 0)
(0.109715 -0.00175467 0)
(0.110532 -0.00182835 0)
(0.111365 -0.00190134 0)
(0.112213 -0.00197366 0)
(0.113075 -0.00204528 0)
(0.11395 -0.00211618 0)
(0.114836 -0.00218632 0)
(0.115732 -0.00225565 0)
(0.116637 -0.00232411 0)
(0.117551 -0.00239163 0)
(0.118471 -0.00245813 0)
(0.119398 -0.00252352 0)
(0.120329 -0.0025877 0)
(0.121264 -0.00265055 0)
(0.122202 -0.00271195 0)
(0.123141 -0.00277177 0)
(0.124082 -0.00282986 0)
(0.125022 -0.00288606 0)
(0.125961 -0.00294018 0)
(0.126898 -0.00299205 0)
(0.127831 -0.00304144 0)
(0.12876 -0.00308813 0)
(0.129683 -0.00313186 0)
(0.130601 -0.00317236 0)
(0.13151 -0.00320932 0)
(0.132412 -0.00324241 0)
(0.133303 -0.00327125 0)
(0.134184 -0.00329543 0)
(0.135053 -0.00331448 0)
(0.135909 -0.00332788 0)
(0.13675 -0.00333507 0)
(0.137577 -0.00333538 0)
(0.138386 -0.00332809 0)
(0.139177 -0.00331234 0)
(0.139949 -0.0032872 0)
(0.1407 -0.00325157 0)
(0.141428 -0.00320421 0)
(0.142132 -0.00314367 0)
(0.14281 -0.0030683 0)
(0.143461 -0.00297615 0)
(0.144083 -0.00286497 0)
(0.144673 -0.00273212 0)
(0.145231 -0.00257448 0)
(0.145753 -0.0023884 0)
(0.146238 -0.00216951 0)
(0.146684 -0.00191265 0)
(0.147089 -0.00161165 0)
(0.147453 -0.00125919 0)
(0.147773 -0.000846476 0)
(0.148051 -0.000363093 0)
(0.148287 0.000203292 0)
(0.148484 0.000866631 0)
(0.148649 0.00164348 0)
(0.148793 0.00255271 0)
(0.148932 0.00361498 0)
(0.14909 0.0048517 0)
(0.149302 0.00628285 0)
(0.149613 0.00792308 0)
(0.150083 0.00977517 0)
(0.150784 0.0118199 0)
(0.151792 0.014002 0)
(0.153169 0.0162135 0)
(0.154929 0.0182848 0)
(0.100016 -0.000161089 0)
(0.10014 -0.000317112 0)
(0.100341 -0.000458048 0)
(0.100609 -0.000588697 0)
(0.100936 -0.000711458 0)
(0.101318 -0.000827991 0)
(0.101748 -0.000939512 0)
(0.102224 -0.00104696 0)
(0.10274 -0.00115105 0)
(0.103294 -0.00125234 0)
(0.103883 -0.00135129 0)
(0.104504 -0.00144824 0)
(0.105154 -0.00154349 0)
(0.105832 -0.00163726 0)
(0.106536 -0.00172975 0)
(0.107263 -0.00182109 0)
(0.108012 -0.0019114 0)
(0.108782 -0.00200076 0)
(0.10957 -0.00208923 0)
(0.110376 -0.00217684 0)
(0.111198 -0.00226361 0)
(0.112035 -0.00234955 0)
(0.112885 -0.00243462 0)
(0.113747 -0.00251881 0)
(0.114621 -0.00260206 0)
(0.115504 -0.00268432 0)
(0.116397 -0.00276552 0)
(0.117296 -0.00284556 0)
(0.118203 -0.00292436 0)
(0.119115 -0.0030018 0)
(0.120032 -0.00307776 0)
(0.120952 -0.00315212 0)
(0.121875 -0.00322471 0)
(0.122799 -0.00329539 0)
(0.123723 -0.00336398 0)
(0.124647 -0.00343029 0)
(0.12557 -0.0034941 0)
(0.126489 -0.00355519 0)
(0.127406 -0.00361331 0)
(0.128317 -0.00366819 0)
(0.129223 -0.00371953 0)
(0.130123 -0.00376702 0)
(0.131014 -0.00381028 0)
(0.131897 -0.00384894 0)
(0.132771 -0.00388255 0)
(0.133633 -0.00391064 0)
(0.134484 -0.00393267 0)
(0.135322 -0.00394804 0)
(0.136145 -0.00395611 0)
(0.136954 -0.00395611 0)
(0.137746 -0.00394723 0)
(0.13852 -0.0039285 0)
(0.139275 -0.00389888 0)
(0.140011 -0.00385714 0)
(0.140724 -0.00380191 0)
(0.141415 -0.00373161 0)
(0.142082 -0.00364444 0)
(0.142724 -0.00353831 0)
(0.143339 -0.00341083 0)
(0.143925 -0.00325923 0)
(0.144482 -0.00308029 0)
(0.145009 -0.0028703 0)
(0.145504 -0.00262492 0)
(0.145967 -0.00233912 0)
(0.146398 -0.00200705 0)
(0.146797 -0.00162195 0)
(0.147164 -0.00117601 0)
(0.147503 -0.00066029 0)
(0.147818 -6.46581e-05 0)
(0.148115 0.000621753 0)
(0.148402 0.00141042 0)
(0.148692 0.00231363 0)
(0.149004 0.00334328 0)
(0.14936 0.00450953 0)
(0.14979 0.00581878 0)
(0.150329 0.00727066 0)
(0.151021 0.00885398 0)
(0.151909 0.0105417 0)
(0.153033 0.0122855 0)
(0.154419 0.0140121 0)
(0.156062 0.0156255 0)
(0.100013 -0.000185372 0)
(0.100134 -0.000367664 0)
(0.10033 -0.00053249 0)
(0.100591 -0.00068554 0)
(0.100911 -0.000829465 0)
(0.101285 -0.0009661 0)
(0.101707 -0.00109684 0)
(0.102174 -0.00122278 0)
(0.102682 -0.00134475 0)
(0.103227 -0.00146341 0)
(0.103806 -0.00157927 0)
(0.104417 -0.00169277 0)
(0.105057 -0.00180423 0)
(0.105725 -0.00191392 0)
(0.106418 -0.00202207 0)
(0.107134 -0.00212885 0)
(0.107871 -0.00223437 0)
(0.108629 -0.00233875 0)
(0.109405 -0.00244205 0)
(0.110199 -0.00254431 0)
(0.111008 -0.00264556 0)
(0.111831 -0.00274578 0)
(0.112668 -0.00284496 0)
(0.113516 -0.00294306 0)
(0.114375 -0.00304003 0)
(0.115244 -0.0031358 0)
(0.116121 -0.00323027 0)
(0.117005 -0.00332337 0)
(0.117896 -0.00341496 0)
(0.118791 -0.00350493 0)
(0.119691 -0.00359313 0)
(0.120594 -0.0036794 0)
(0.1215 -0.00376358 0)
(0.122406 -0.00384548 0)
(0.123312 -0.00392489 0)
(0.124218 -0.0040016 0)
(0.125121 -0.00407535 0)
(0.126022 -0.0041459 0)
(0.126919 -0.00421294 0)
(0.127811 -0.00427617 0)
(0.128697 -0.00433526 0)
(0.129576 -0.00438982 0)
(0.130448 -0.00443945 0)
(0.131311 -0.00448371 0)
(0.132164 -0.0045221 0)
(0.133006 -0.00455408 0)
(0.133836 -0.00457906 0)
(0.134654 -0.00459638 0)
(0.135458 -0.00460528 0)
(0.136246 -0.00460496 0)
(0.137019 -0.00459449 0)
(0.137775 -0.00457285 0)
(0.138513 -0.00453889 0)
(0.139232 -0.0044913 0)
(0.13993 -0.00442861 0)
(0.140608 -0.00434916 0)
(0.141263 -0.00425108 0)
(0.141895 -0.00413223 0)
(0.142503 -0.00399017 0)
(0.143087 -0.00382215 0)
(0.143645 -0.00362502 0)
(0.144178 -0.00339521 0)
(0.144685 -0.00312865 0)
(0.145166 -0.00282076 0)
(0.145624 -0.00246638 0)
(0.146059 -0.00205971 0)
(0.146474 -0.00159438 0)
(0.146874 -0.00106342 0)
(0.147263 -0.000459337 0)
(0.14765 0.000225752 0)
(0.148044 0.000998382 0)
(0.148458 0.00186501 0)
(0.148908 0.00283062 0)
(0.149413 0.00389751 0)
(0.149997 0.00506378 0)
(0.150684 0.00632157 0)
(0.1515 0.007655 0)
(0.152472 0.00903828 0)
(0.153618 0.0104344 0)
(0.154945 0.0117958 0)
(0.156444 0.0130684 0)
(0.10001 -0.000210379 0)
(0.100128 -0.000420041 0)
(0.100319 -0.00060996 0)
(0.100573 -0.000786598 0)
(0.100885 -0.000952876 0)
(0.10125 -0.00111078 0)
(0.101663 -0.00126186 0)
(0.102121 -0.00140737 0)
(0.102618 -0.00154825 0)
(0.103153 -0.00168527 0)
(0.103721 -0.00181902 0)
(0.104321 -0.00194998 0)
(0.10495 -0.00207855 0)
(0.105606 -0.00220503 0)
(0.106286 -0.00232968 0)
(0.10699 -0.0024527 0)
(0.107714 -0.00257423 0)
(0.108459 -0.00269439 0)
(0.109221 -0.00281325 0)
(0.11 -0.00293086 0)
(0.110794 -0.00304726 0)
(0.111602 -0.00316242 0)
(0.112423 -0.00327634 0)
(0.113256 -0.00338896 0)
(0.114098 -0.00350023 0)
(0.11495 -0.00361005 0)
(0.11581 -0.00371834 0)
(0.116677 -0.00382498 0)
(0.117549 -0.00392984 0)
(0.118427 -0.00403278 0)
(0.119308 -0.00413362 0)
(0.120192 -0.0042322 0)
(0.121077 -0.00432831 0)
(0.121963 -0.00442174 0)
(0.122849 -0.00451226 0)
(0.123734 -0.00459961 0)
(0.124617 -0.00468353 0)
(0.125496 -0.00476371 0)
(0.126371 -0.00483982 0)
(0.127242 -0.00491153 0)
(0.128106 -0.00497844 0)
(0.128963 -0.00504014 0)
(0.129812 -0.00509617 0)
(0.130653 -0.00514605 0)
(0.131483 -0.00518922 0)
(0.132303 -0.0052251 0)
(0.133111 -0.00525302 0)
(0.133907 -0.00527227 0)
(0.134689 -0.00528204 0)
(0.135457 -0.00528146 0)
(0.136209 -0.00526955 0)
(0.136946 -0.00524521 0)
(0.137665 -0.00520726 0)
(0.138366 -0.00515432 0)
(0.139049 -0.0050849 0)
(0.139713 -0.00499732 0)
(0.140356 -0.0048897 0)
(0.140979 -0.00475993 0)
(0.141581 -0.00460567 0)
(0.142162 -0.00442429 0)
(0.142722 -0.00421289 0)
(0.143261 -0.00396822 0)
(0.143781 -0.00368672 0)
(0.144281 -0.00336447 0)
(0.144766 -0.00299723 0)
(0.145236 -0.00258049 0)
(0.145696 -0.00210947 0)
(0.14615 -0.00157934 0)
(0.146605 -0.000985283 0)
(0.147069 -0.000322693 0)
(0.147551 0.000412577 0)
(0.148062 0.00122147 0)
(0.148615 0.00210427 0)
(0.149224 0.00305858 0)
(0.149906 0.00407841 0)
(0.150677 0.00515335 0)
(0.151553 0.00626778 0)
(0.152545 0.00740052 0)
(0.153662 0.00852512 0)
(0.154903 0.00961126 0)
(0.156258 0.0106282 0)
(0.100006 -0.000236139 0)
(0.100123 -0.000474223 0)
(0.100308 -0.000690418 0)
(0.100554 -0.000891816 0)
(0.100857 -0.00108162 0)
(0.101214 -0.00126194 0)
(0.101617 -0.00143449 0)
(0.102064 -0.00160065 0)
(0.10255 -0.0017615 0)
(0.103073 -0.00191788 0)
(0.10363 -0.00207049 0)
(0.104217 -0.00221985 0)
(0.104833 -0.00236643 0)
(0.105475 -0.00251057 0)
(0.106142 -0.00265256 0)
(0.106831 -0.00279262 0)
(0.107541 -0.00293093 0)
(0.10827 -0.00306761 0)
(0.109017 -0.00320276 0)
(0.10978 -0.00333643 0)
(0.110558 -0.00346864 0)
(0.111349 -0.00359939 0)
(0.112153 -0.00372865 0)
(0.112967 -0.00385637 0)
(0.113791 -0.00398248 0)
(0.114624 -0.00410689 0)
(0.115465 -0.00422949 0)
(0.116312 -0.00435014 0)
(0.117164 -0.00446869 0)
(0.118021 -0.00458499 0)
(0.118881 -0.00469885 0)
(0.119744 -0.00481005 0)
(0.120608 -0.0049184 0)
(0.121472 -0.00502363 0)
(0.122335 -0.00512549 0)
(0.123197 -0.0052237 0)
(0.124057 -0.00531794 0)
(0.124913 -0.00540789 0)
(0.125764 -0.00549319 0)
(0.12661 -0.00557345 0)
(0.12745 -0.00564824 0)
(0.128283 -0.00571712 0)
(0.129108 -0.00577957 0)
(0.129925 -0.00583508 0)
(0.130731 -0.00588303 0)
(0.131527 -0.00592281 0)
(0.132311 -0.0059537 0)
(0.133084 -0.00597495 0)
(0.133843 -0.0059857 0)
(0.134588 -0.00598505 0)
(0.135319 -0.00597198 0)
(0.136035 -0.00594537 0)
(0.136735 -0.005904 0)
(0.137418 -0.00584652 0)
(0.138084 -0.00577145 0)
(0.138733 -0.00567715 0)
(0.139365 -0.00556181 0)
(0.139978 -0.00542347 0)
(0.140574 -0.00525996 0)
(0.141153 -0.00506893 0)
(0.141715 -0.00484782 0)
(0.142261 -0.00459388 0)
(0.142792 -0.00430418 0)
(0.143311 -0.00397564 0)
(0.143819 -0.00360508 0)
(0.144321 -0.00318927 0)
(0.14482 -0.00272511 0)
(0.14532 -0.00220969 0)
(0.145829 -0.00164054 0)
(0.146353 -0.00101577 0)
(0.146901 -0.000334199 0)
(0.147482 0.000404405 0)
(0.148104 0.00119597 0)
(0.148779 0.0020357 0)
(0.149516 0.00291633 0)
(0.150326 0.00382766 0)
(0.151215 0.00475642 0)
(0.152191 0.00568652 0)
(0.153254 0.00659967 0)
(0.154402 0.00747673 0)
(0.155624 0.00829991 0)
(0.100003 -0.000262674 0)
(0.100117 -0.000530189 0)
(0.100296 -0.000773813 0)
(0.100535 -0.00100112 0)
(0.100829 -0.0012156 0)
(0.101176 -0.00141949 0)
(0.101568 -0.00161462 0)
(0.102004 -0.00180251 0)
(0.102478 -0.00198436 0)
(0.102989 -0.00216112 0)
(0.103532 -0.00233354 0)
(0.104105 -0.00250224 0)
(0.104707 -0.00266772 0)
(0.105335 -0.00283038 0)
(0.105986 -0.00299053 0)
(0.106659 -0.00314844 0)
(0.107353 -0.0033043 0)
(0.108065 -0.00345824 0)
(0.108794 -0.00361038 0)
(0.10954 -0.00376076 0)
(0.110299 -0.00390943 0)
(0.111071 -0.00405637 0)
(0.111856 -0.00420156 0)
(0.11265 -0.00434493 0)
(0.113454 -0.00448641 0)
(0.114267 -0.00462588 0)
(0.115086 -0.00476323 0)
(0.115911 -0.00489831 0)
(0.116741 -0.00503095 0)
(0.117576 -0.00516096 0)
(0.118413 -0.00528815 0)
(0.119252 -0.00541227 0)
(0.120092 -0.00553309 0)
(0.120931 -0.00565034 0)
(0.12177 -0.00576373 0)
(0.122607 -0.00587294 0)
(0.123441 -0.00597764 0)
(0.124272 -0.00607746 0)
(0.125098 -0.00617201 0)
(0.125918 -0.00626086 0)
(0.126732 -0.00634356 0)
(0.127539 -0.00641962 0)
(0.128338 -0.00648851 0)
(0.129128 -0.00654965 0)
(0.129909 -0.00660242 0)
(0.130679 -0.00664614 0)
(0.131438 -0.0066801 0)
(0.132185 -0.00670348 0)
(0.13292 -0.00671544 0)
(0.133642 -0.00671505 0)
(0.13435 -0.00670127 0)
(0.135045 -0.00667302 0)
(0.135724 -0.00662909 0)
(0.136389 -0.00656817 0)
(0.137038 -0.00648887 0)
(0.137673 -0.00638964 0)
(0.138292 -0.00626885 0)
(0.138896 -0.00612473 0)
(0.139485 -0.0059554 0)
(0.140061 -0.00575885 0)
(0.140624 -0.00553299 0)
(0.141175 -0.00527565 0)
(0.141716 -0.0049846 0)
(0.14225 -0.00465765 0)
(0.142779 -0.00429265 0)
(0.143307 -0.00388763 0)
(0.143836 -0.00344092 0)
(0.144373 -0.00295123 0)
(0.144922 -0.00241789 0)
(0.145489 -0.00184098 0)
(0.146081 -0.00122142 0)
(0.146704 -0.000561092 0)
(0.147367 0.000137527 0)
(0.148076 0.000868156 0)
(0.148835 0.00162259 0)
(0.149651 0.00239206 0)
(0.150527 0.00316621 0)
(0.151464 0.00393342 0)
(0.152462 0.00468135 0)
(0.153516 0.00539784 0)
(0.15462 0.00607249 0)
(0.0999994 -0.000289993 0)
(0.100111 -0.000587905 0)
(0.100285 -0.000860073 0)
(0.100515 -0.0011144 0)
(0.100801 -0.00135469 0)
(0.101136 -0.00158325 0)
(0.101518 -0.00180206 0)
(0.101941 -0.00201275 0)
(0.102402 -0.00221663 0)
(0.102899 -0.00241475 0)
(0.103428 -0.00260794 0)
(0.103986 -0.0027969 0)
(0.104572 -0.00298216 0)
(0.105183 -0.00316418 0)
(0.105818 -0.00334331 0)
(0.106474 -0.00351984 0)
(0.107149 -0.00369398 0)
(0.107843 -0.00386589 0)
(0.108553 -0.00403569 0)
(0.109279 -0.00420344 0)
(0.110018 -0.00436917 0)
(0.11077 -0.00453287 0)
(0.111533 -0.00469452 0)
(0.112306 -0.00485404 0)
(0.113087 -0.00501135 0)
(0.113877 -0.00516633 0)
(0.114673 -0.00531884 0)
(0.115474 -0.00546871 0)
(0.11628 -0.00561576 0)
(0.11709 -0.00575979 0)
(0.117902 -0.00590056 0)
(0.118715 -0.00603783 0)
(0.119529 -0.00617133 0)
(0.120343 -0.00630075 0)
(0.121155 -0.00642579 0)
(0.121965 -0.00654611 0)
(0.122772 -0.00666133 0)
(0.123575 -0.00677107 0)
(0.124373 -0.00687489 0)
(0.125165 -0.00697236 0)
(0.125952 -0.00706298 0)
(0.126731 -0.00714623 0)
(0.127502 -0.00722156 0)
(0.128264 -0.00728836 0)
(0.129017 -0.00734599 0)
(0.12976 -0.00739377 0)
(0.130492 -0.00743094 0)
(0.131214 -0.00745671 0)
(0.131923 -0.00747023 0)
(0.13262 -0.00747057 0)
(0.133305 -0.00745675 0)
(0.133977 -0.0074277 0)
(0.134635 -0.0073823 0)
(0.135281 -0.00731934 0)
(0.135913 -0.00723754 0)
(0.136532 -0.00713553 0)
(0.137138 -0.00701189 0)
(0.137732 -0.00686512 0)
(0.138314 -0.00669367 0)
(0.138886 -0.00649597 0)
(0.139448 -0.00627042 0)
(0.140002 -0.00601545 0)
(0.14055 -0.00572956 0)
(0.141095 -0.00541137 0)
(0.141639 -0.00505968 0)
(0.142185 -0.00467359 0)
(0.142736 -0.00425256 0)
(0.143297 -0.00379652 0)
(0.143872 -0.00330602 0)
(0.144466 -0.00278232 0)
(0.145082 -0.0022275 0)
(0.145727 -0.00164452 0)
(0.146405 -0.00103709 0)
(0.14712 -0.00040943 0)
(0.147877 0.00023306 0)
(0.148677 0.000882392 0)
(0.149521 0.00152942 0)
(0.150408 0.00216597 0)
(0.151337 0.00278378 0)
(0.152303 0.00337522 0)
(0.153301 0.00393425 0)
(0.0999955 -0.000318092 0)
(0.100105 -0.000647322 0)
(0.100273 -0.000949099 0)
(0.100495 -0.00123154 0)
(0.100771 -0.0014987 0)
(0.101096 -0.00175303 0)
(0.101465 -0.00199657 0)
(0.101875 -0.00223108 0)
(0.102322 -0.00245799 0)
(0.102804 -0.00267844 0)
(0.103317 -0.00289333 0)
(0.103859 -0.00310342 0)
(0.104428 -0.00330932 0)
(0.105021 -0.00351151 0)
(0.105638 -0.0037104 0)
(0.106274 -0.00390629 0)
(0.10693 -0.00409942 0)
(0.107604 -0.00428997 0)
(0.108293 -0.00447806 0)
(0.108997 -0.00466376 0)
(0.109715 -0.00484711 0)
(0.110444 -0.00502811 0)
(0.111183 -0.0052067 0)
(0.111933 -0.00538283 0)
(0.11269 -0.00555639 0)
(0.113455 -0.00572724 0)
(0.114225 -0.00589525 0)
(0.115001 -0.00606022 0)
(0.115781 -0.00622195 0)
(0.116564 -0.00638022 0)
(0.117348 -0.00653478 0)
(0.118134 -0.00668536 0)
(0.11892 -0.00683166 0)
(0.119705 -0.00697336 0)
(0.120489 -0.00711013 0)
(0.12127 -0.00724159 0)
(0.122047 -0.00736736 0)
(0.122821 -0.00748702 0)
(0.12359 -0.00760012 0)
(0.124352 -0.00770618 0)
(0.125109 -0.00780471 0)
(0.125858 -0.00789515 0)
(0.1266 -0.00797693 0)
(0.127333 -0.00804945 0)
(0.128057 -0.00811205 0)
(0.128771 -0.00816404 0)
(0.129476 -0.00820468 0)
(0.130169 -0.00823319 0)
(0.130852 -0.00824875 0)
(0.131524 -0.00825048 0)
(0.132184 -0.00823744 0)
(0.132832 -0.00820867 0)
(0.133469 -0.00816313 0)
(0.134094 -0.00809976 0)
(0.134708 -0.00801744 0)
(0.135311 -0.00791503 0)
(0.135903 -0.00779135 0)
(0.136485 -0.00764522 0)
(0.137059 -0.00747547 0)
(0.137624 -0.00728093 0)
(0.138183 -0.00706054 0)
(0.138737 -0.0068133 0)
(0.139288 -0.00653834 0)
(0.139839 -0.00623502 0)
(0.140391 -0.00590291 0)
(0.140947 -0.00554192 0)
(0.141511 -0.00515233 0)
(0.142085 -0.00473489 0)
(0.142672 -0.00429086 0)
(0.143277 -0.00382211 0)
(0.143902 -0.00333114 0)
(0.14455 -0.00282112 0)
(0.145225 -0.00229583 0)
(0.145928 -0.00175963 0)
(0.146662 -0.00121725 0)
(0.147428 -0.000673389 0)
(0.148227 -0.000132753 0)
(0.149057 0.000398418 0)
(0.149916 0.000913983 0)
(0.150799 0.00140778 0)
(0.151702 0.00187628 0)
(0.0999913 -0.00034695 0)
(0.100099 -0.000708364 0)
(0.100261 -0.00104075 0)
(0.100475 -0.00135232 0)
(0.10074 -0.0016474 0)
(0.101053 -0.00192851 0)
(0.10141 -0.00219779 0)
(0.101806 -0.00245712 0)
(0.102238 -0.00270801 0)
(0.102704 -0.0029517 0)
(0.1032 -0.00318918 0)
(0.103724 -0.00342125 0)
(0.104275 -0.00364859 0)
(0.104849 -0.00387173 0)
(0.105445 -0.00409111 0)
(0.106062 -0.00430705 0)
(0.106696 -0.00451982 0)
(0.107348 -0.00472962 0)
(0.108015 -0.00493657 0)
(0.108695 -0.00514077 0)
(0.109389 -0.00534225 0)
(0.110093 -0.00554099 0)
(0.110808 -0.00573696 0)
(0.111531 -0.00593007 0)
(0.112263 -0.00612022 0)
(0.113 -0.00630726 0)
(0.113744 -0.00649103 0)
(0.114492 -0.00667133 0)
(0.115243 -0.00684794 0)
(0.115997 -0.00702062 0)
(0.116752 -0.00718909 0)
(0.117508 -0.00735307 0)
(0.118264 -0.00751223 0)
(0.119019 -0.00766625 0)