/*--------------------------------*- C++ -*----------------------------------*\
| =========                 |                                                 |
| \\      /  F ield         | OpenFOAM: The Open Source CFD Toolbox           |
|  \\    /   O peration     | Version:  2106                                  |
|   \\  /    A nd           | Website:  www.openfoam.com                      |
|    \\/     M anipulation  |                                                 |
\*---------------------------------------------------------------------------*/
FoamFile
{
    version     2.0;
    format      ascii;
    arch        "LSB;label=32;scalar=64";
    class       surfaceScalarField;
    location    "9.6";
    object      phi;
}
// * * * * * * * * * * * * * * * * * * * * * * * * * * * * * * * * * * * * * //

dimensions      [1 0 -1 0 0 0 0];

oriented        oriented;

internalField   nonuniform List<scalar> 
23692
(
9.31905e-05
-1.1108e-07
9.33919e-05
-2.0137e-07
9.36739e-05
-2.81962e-07
9.40269e-05
-3.53047e-07
9.44437e-05
-4.16796e-07
9.49183e-05
-4.74521e-07
9.54454e-05
-5.271e-07
9.60207e-05
-5.75225e-07
9.66401e-05
-6.19443e-07
9.73003e-05
-6.60184e-07
9.79982e-05
-6.97801e-07
9.87308e-05
-7.32589e-07
9.94957e-05
-7.64799e-07
0.00010029
-7.94634e-07
0.000101113
-8.22275e-07
0.000101961
-8.47872e-07
0.000102832
-8.71559e-07
0.000103726
-8.9345e-07
0.000104639
-9.13645e-07
0.000105572
-9.32231e-07
0.000106521
-9.49282e-07
0.000107486
-9.64868e-07
0.000108465
-9.79047e-07
0.000109457
-9.91873e-07
0.00011046
-1.00339e-06
0.000111474
-1.01364e-06
0.000112497
-1.02266e-06
0.000113527
-1.03049e-06
0.000114565
-1.03714e-06
0.000115607
-1.04265e-06
0.000116654
-1.04704e-06
0.000117705
-1.05033e-06
0.000118757
-1.05252e-06
0.000119811
-1.05365e-06
0.000120865
-1.05371e-06
0.000121918
-1.05271e-06
0.000122968
-1.05066e-06
0.000124016
-1.04755e-06
0.000125059
-1.04339e-06
0.000126097
-1.03817e-06
0.000127129
-1.03188e-06
0.000128154
-1.0245e-06
0.00012917
-1.01601e-06
0.000130176
-1.0064e-06
0.000131172
-9.95624e-07
0.000132156
-9.83648e-07
0.000133126
-9.70426e-07
0.000134082
-9.55905e-07
0.000135022
-9.40016e-07
0.000135945
-9.22683e-07
0.000136849
-9.03812e-07
0.000137732
-8.83294e-07
0.000138593
-8.60997e-07
0.00013943
-8.36766e-07
0.00014024
-8.10417e-07
0.000141022
-7.81729e-07
0.000141772
-7.50438e-07
0.000142488
-7.16226e-07
0.000143167
-6.78707e-07
0.000143805
-6.37411e-07
0.000144396
-5.91762e-07
0.000144937
-5.41047e-07
0.000145422
-4.84373e-07
0.000145842
-4.20617e-07
0.000146191
-3.48343e-07
0.000146456
-2.65698e-07
0.000146627
-1.70254e-07
0.000146685
-5.87877e-08
0.000146612
7.30826e-08
0.000146381
2.31503e-07
0.000145955
4.25205e-07
0.000145289
6.6691e-07
0.000144313
9.75664e-07
0.000142932
1.38083e-06
0.000141003
1.92908e-06
0.000138306
2.69678e-06
0.000134494
3.81206e-06
0.000128998
5.49639e-06
0.000120836
8.16139e-06
0.000108175
1.26607e-05
2.14737e-05
8.67017e-05
9.97149e-05
-2.26997e-07
9.99291e-05
-4.15637e-07
0.00010023
-5.82715e-07
0.000100607
-7.29827e-07
0.000101052
-8.61805e-07
0.000101559
-9.81304e-07
0.000102122
-1.09013e-06
0.000102736
-1.18974e-06
0.000103398
-1.28124e-06
0.000104103
-1.36555e-06
0.000104849
-1.44339e-06
0.000105632
-1.51538e-06
0.000106449
-1.58202e-06
0.000107298
-1.64375e-06
0.000108177
-1.70093e-06
0.000109083
-1.75388e-06
0.000110014
-1.80288e-06
0.000110969
-1.84816e-06
0.000111946
-1.88992e-06
0.000112942
-1.92835e-06
0.000113956
-1.96361e-06
0.000114987
-1.99583e-06
0.000116033
-2.02514e-06
0.000117093
-2.05165e-06
0.000118165
-2.07544e-06
0.000119248
-2.09662e-06
0.000120341
-2.11525e-06
0.000121442
-2.1314e-06
0.00012255
-2.14512e-06
0.000123664
-2.15648e-06
0.000124782
-2.16552e-06
0.000125904
-2.17228e-06
0.000127029
-2.17678e-06
0.000128154
-2.17905e-06
0.00012928
-2.17913e-06
0.000130404
-2.17701e-06
0.000131526
-2.17271e-06
0.000132645
-2.16624e-06
0.000133759
-2.15758e-06
0.000134868
-2.14673e-06
0.000135969
-2.13366e-06
0.000137063
-2.11834e-06
0.000138148
-2.10073e-06
0.000139222
-2.08079e-06
0.000140285
-2.05845e-06
0.000141335
-2.03363e-06
0.000142371
-2.00624e-06
0.000143391
-1.97616e-06
0.000144395
-1.94327e-06
0.000145379
-1.90739e-06
0.000146344
-1.86835e-06
0.000147287
-1.82591e-06
0.000148205
-1.77981e-06
0.000149098
-1.72973e-06
0.000149963
-1.67531e-06
0.000150798
-1.61608e-06
0.000151599
-1.55151e-06
0.000152363
-1.48097e-06
0.000153088
-1.40367e-06
0.00015377
-1.31866e-06
0.000154403
-1.22479e-06
0.000154982
-1.12062e-06
0.000155502
-1.00438e-06
0.000155955
-8.73825e-07
0.000156333
-7.26126e-07
0.000156625
-5.57634e-07
0.000156818
-3.63611e-07
0.000156897
-1.37811e-07
0.000156842
1.28122e-07
0.000156628
4.45695e-07
0.000156222
8.31005e-07
0.000155582
1.30695e-06
0.000154651
1.90681e-06
0.000153352
2.67995e-06
0.00015158
3.70102e-06
0.000149192
5.08449e-06
0.000145998
7.00611e-06
0.000141762
9.73207e-06
0.000136264
1.36598e-05
0.000129636
1.92891e-05
2.64853e-05
0.000124624
0.000106695
-3.47071e-07
0.000106922
-6.42537e-07
0.000107241
-9.02057e-07
0.000107642
-1.1307e-06
0.000108116
-1.33574e-06
0.000108656
-1.52135e-06
0.000109257
-1.69035e-06
0.000109912
-1.84501e-06
0.000110618
-1.98708e-06
0.00011137
-2.11796e-06
0.000112166
-2.23879e-06
0.000113001
-2.35051e-06
0.000113873
-2.45393e-06
0.000114779
-2.54971e-06
0.000115716
-2.63843e-06
0.000116683
-2.72058e-06
0.000117677
-2.79658e-06
0.000118696
-2.8668e-06
0.000119737
-2.93156e-06
0.0001208
-2.99115e-06
0.000121882
-3.0458e-06
0.000122982
-3.09573e-06
0.000124098
-3.14114e-06
0.000125229
-3.18219e-06
0.000126373
-3.21903e-06
0.000127528
-3.2518e-06
0.000128693
-3.28061e-06
0.000129868
-3.30557e-06
0.000131049
-3.32677e-06
0.000132237
-3.34429e-06
0.00013343
-3.3582e-06
0.000134626
-3.36855e-06
0.000135825
-3.37542e-06
0.000137025
-3.37882e-06
0.000138224
-3.37881e-06
0.000139423
-3.37539e-06
0.000140619
-3.36859e-06
0.000141811
-3.3584e-06
0.000142998
-3.34483e-06
0.000144179
-3.32785e-06
0.000145353
-3.30743e-06
0.000146519
-3.28352e-06
0.000147674
-3.25607e-06
0.000148818
-3.225e-06
0.00014995
-3.19021e-06
0.000151068
-3.15158e-06
0.000152171
-3.10898e-06
0.000153257
-3.06222e-06
0.000154325
-3.0111e-06
0.000155373
-2.95538e-06
0.000156399
-2.89478e-06
0.000157402
-2.82895e-06
0.00015838
-2.75748e-06
0.00015933
-2.67991e-06
0.00016025
-2.59565e-06
0.000161138
-2.50405e-06
0.000161991
-2.40429e-06
0.000162805
-2.2954e-06
0.000163578
-2.17623e-06
0.000164305
-2.04536e-06
0.000164981
-1.90109e-06
0.000165602
-1.74129e-06
0.000166161
-1.56337e-06
0.000166651
-1.36407e-06
0.000167064
-1.1393e-06
0.00016739
-8.83845e-07
0.000167618
-5.91011e-07
0.000167732
-2.52096e-07
0.000167716
1.44311e-07
0.000167548
6.13481e-07
0.000167203
1.17622e-06
0.000166648
1.86114e-06
0.000165847
2.70801e-06
0.000164754
3.77258e-06
0.000163322
5.13342e-06
0.000161506
6.90036e-06
0.00015929
9.22264e-06
0.000156733
1.22889e-05
0.000154097
1.62958e-05
0.000152104
2.1282e-05
2.65261e-05
0.000152063
0.000114164
-4.71004e-07
0.000114403
-8.81495e-07
0.00011474
-1.2398e-06
0.000115166
-1.55584e-06
0.000115669
-1.83913e-06
0.000116243
-2.09548e-06
0.000116882
-2.32885e-06
0.000117579
-2.54237e-06
0.00011833
-2.73848e-06
0.000119132
-2.91911e-06
0.000119979
-3.08584e-06
0.000120868
-3.23999e-06
0.000121797
-3.38266e-06
0.000122762
-3.51477e-06
0.000123761
-3.63712e-06
0.000124791
-3.75039e-06
0.000125849
-3.85516e-06
0.000126935
-3.95194e-06
0.000128044
-4.04118e-06
0.000129176
-4.12326e-06
0.000130329
-4.19852e-06
0.000131501
-4.26726e-06
0.00013269
-4.32975e-06
0.000133894
-4.38622e-06
0.000135112
-4.43687e-06
0.000136342
-4.48189e-06
0.000137583
-4.52145e-06
0.000138833
-4.55568e-06
0.000140091
-4.58471e-06
0.000141355
-4.60866e-06
0.000142625
-4.62762e-06
0.000143898
-4.64168e-06
0.000145173
-4.6509e-06
0.00014645
-4.65536e-06
0.000147726
-4.65508e-06
0.000149001
-4.65011e-06
0.000150273
-4.64047e-06
0.000151541
-4.62616e-06
0.000152803
-4.60718e-06
0.000154059
-4.58349e-06
0.000155307
-4.55506e-06
0.000156545
-4.52183e-06
0.000157773
-4.48372e-06
0.000158988
-4.44062e-06
0.000160191
-4.3924e-06
0.000161378
-4.33891e-06
0.000162549
-4.27996e-06
0.000163702
-4.21531e-06
0.000164836
-4.14469e-06
0.000165948
-4.06777e-06
0.000167037
-3.98417e-06
0.000168102
-3.89343e-06
0.000169139
-3.79503e-06
0.000170148
-3.68831e-06
0.000171125
-3.57255e-06
0.000172068
-3.44683e-06
0.000172973
-3.3101e-06
0.000173839
-3.1611e-06
0.000174661
-2.99831e-06
0.000175436
-2.81991e-06
0.000176158
-2.62369e-06
0.000176824
-2.40694e-06
0.000177427
-2.16637e-06
0.000177961
-1.89789e-06
0.000178418
-1.59642e-06
0.00017879
-1.25561e-06
0.000179066
-8.67373e-07
0.000179235
-4.21465e-07
0.000179284
9.52236e-08
0.000179198
6.99631e-07
0.00017896
1.41388e-06
0.000178554
2.26718e-06
0.000177964
3.29786e-06
0.000177181
4.55597e-06
0.000176208
6.10597e-06
0.000175081
8.02806e-06
0.000173889
1.04148e-05
0.000172823
1.33546e-05
0.000172235
1.68835e-05
0.000172658
2.08591e-05
2.46913e-05
0.000174493
0.000122155
-5.98665e-07
0.000122405
-1.13205e-06
0.000122761
-1.5957e-06
0.000123211
-2.00526e-06
0.000123744
-2.3723e-06
0.000124353
-2.70432e-06
0.000125031
-3.00651e-06
0.000125771
-3.28294e-06
0.000126569
-3.53677e-06
0.000127421
-3.77052e-06
0.000128321
-3.98625e-06
0.000129267
-4.18565e-06
0.000130255
-4.37016e-06
0.000131281
-4.54099e-06
0.000132343
-4.69916e-06
0.000133438
-4.84555e-06
0.000134564
-4.98092e-06
0.000135718
-5.10594e-06
0.000136898
-5.22118e-06
0.000138102
-5.32714e-06
0.000139328
-5.42426e-06
0.000140574
-5.51294e-06
0.000141838
-5.5935e-06
0.000143118
-5.66625e-06
0.000144412
-5.73147e-06
0.00014572
-5.78939e-06
0.000147039
-5.84023e-06
0.000148367
-5.88416e-06
0.000149704
-5.92136e-06
0.000151047
-5.95197e-06
0.000152396
-5.97611e-06
0.000153748
-5.99391e-06
0.000155103
-6.00544e-06
0.000156458
-6.0108e-06
0.000157813
-6.01003e-06
0.000159167
-6.00319e-06
0.000160516
-5.9903e-06
0.000161862
-5.97137e-06
0.000163201
-5.94639e-06
0.000164533
-5.91533e-06
0.000165856
-5.87815e-06
0.000167169
-5.83477e-06
0.00016847
-5.78509e-06
0.000169759
-5.72899e-06
0.000171033
-5.6663e-06
0.000172291
-5.59682e-06
0.000173531
-5.52032e-06
0.000174752
-5.43651e-06
0.000175953
-5.34505e-06
0.00017713
-5.24554e-06
0.000178284
-5.1375e-06
0.000179411
-5.02037e-06
0.000180509
-4.8935e-06
0.000181577
-4.7561e-06
0.000182612
-4.60726e-06
0.000183611
-4.44589e-06
0.000184571
-4.27071e-06
0.000185491
-4.08021e-06
0.000186365
-3.87257e-06
0.00018719
-3.64562e-06
0.000187964
-3.39676e-06
0.000188679
-3.12287e-06
0.000189333
-2.82013e-06
0.000189919
-2.48392e-06
0.000190431
-2.10857e-06
0.000190863
-1.68709e-06
0.000191206
-1.21084e-06
0.000191454
-6.69115e-07
0.000191598
-4.867e-08
0.00019163
6.66994e-07
0.000191546
1.498e-06
0.000191343
2.46988e-06
0.000191028
3.61372e-06
0.000190617
4.96674e-06
0.000190151
6.57161e-06
0.000189705
8.47359e-06
0.000189408
1.07126e-05
0.000189457
1.33053e-05
0.00019013
1.62101e-05
0.000191728
1.92611e-05
2.20734e-05
0.000194346
0.000130705
-7.30058e-07
0.000130967
-1.39384e-06
0.000131341
-1.96952e-06
0.000131815
-2.47888e-06
0.000132378
-2.93543e-06
0.000133022
-3.34832e-06
0.000133739
-3.72404e-06
0.000134524
-4.06765e-06
0.000135371
-4.38309e-06
0.000136274
-4.67351e-06
0.000137229
-4.94148e-06
0.000138232
-5.18911e-06
0.00013928
-5.41819e-06
0.00014037
-5.63023e-06
0.000141497
-5.82649e-06
0.00014266
-6.0081e-06
0.000143855
-6.17599e-06
0.00014508
-6.33098e-06
0.000146333
-6.47379e-06
0.000147611
-6.60505e-06
0.000148912
-6.7253e-06
0.000150234
-6.83503e-06
0.000151575
-6.93466e-06
0.000152934
-7.02458e-06
0.000154307
-7.10511e-06
0.000155695
-7.17655e-06
0.000157094
-7.23918e-06
0.000158503
-7.29321e-06
0.00015992
-7.33887e-06
0.000161345
-7.37632e-06
0.000162774
-7.40574e-06
0.000164208
-7.42725e-06
0.000165643
-7.44098e-06
0.00016708
-7.44702e-06
0.000168515
-7.44546e-06
0.000169948
-7.43634e-06
0.000171378
-7.41971e-06
0.000172802
-7.39558e-06
0.00017422
-7.36395e-06
0.000175629
-7.32479e-06
0.000177029
-7.27803e-06
0.000178418
-7.2236e-06
0.000179794
-7.16138e-06
0.000181157
-7.09122e-06
0.000182503
-7.01293e-06
0.000183833
-6.92628e-06
0.000185144
-6.83099e-06
0.000186434
-6.72673e-06
0.000187702
-6.61309e-06
0.000188946
-6.4896e-06
0.000190164
-6.35572e-06
0.000191355
-6.21078e-06
0.000192515
-6.05403e-06
0.000193644
-5.88456e-06
0.000194738
-5.70132e-06
0.000195795
-5.50308e-06
0.000196813
-5.28838e-06
0.000197788
-5.05551e-06
0.000198718
-4.80245e-06
0.000199599
-4.5268e-06
0.000200428
-4.22572e-06
0.000201201
-3.89583e-06
0.000201914
-3.5331e-06
0.000202563
-3.13269e-06
0.000203143
-2.68882e-06
0.00020365
-2.19451e-06
0.000204081
-1.6414e-06
0.000204431
-1.01943e-06
0.000204699
-3.16616e-07
0.000204885
4.81166e-07
0.000204993
1.39e-06
0.000205034
2.42885e-06
0.000205028
3.61898e-06
0.000205012
4.98286e-06
0.000205042
6.54212e-06
0.000205202
8.31339e-06
0.000205613
1.0301e-05
0.000206434
1.24846e-05
0.000207844
1.47999e-05
0.000209993
1.71126e-05
1.91946e-05
0.000212872
0.000139855
-8.65299e-07
0.000140127
-1.66661e-06
0.000140519
-2.36104e-06
0.000141017
-2.97659e-06
0.00014161
-3.52859e-06
0.000142289
-4.02776e-06
0.000143047
-4.48193e-06
0.000143877
-4.8972e-06
0.000144772
-5.27834e-06
0.000145728
-5.62916e-06
0.000146739
-5.95277e-06
0.000147802
-6.25174e-06
0.000148912
-6.52824e-06
0.000150066
-6.78409e-06
0.00015126
-7.02084e-06
0.000152492
-7.23982e-06
0.000153758
-7.44219e-06
0.000155056
-7.62894e-06
0.000156384
-7.80093e-06
0.000157738
-7.95893e-06
0.000159116
-8.10361e-06
0.000160517
-8.23554e-06
0.000161937
-8.35524e-06
0.000163376
-8.46318e-06
0.000164831
-8.55976e-06
0.0001663
-8.64533e-06
0.000167781
-8.72023e-06
0.000169272
-8.78473e-06
0.000170773
-8.83908e-06
0.00017228
-8.88352e-06
0.000173792
-8.91823e-06
0.000175309
-8.94338e-06
0.000176827
-8.95912e-06
0.000178345
-8.96557e-06
0.000179863
-8.96283e-06
0.000181378
-8.95097e-06
0.000182888
-8.93004e-06
0.000184393
-8.90006e-06
0.00018589
-8.86105e-06
0.000187378
-8.81296e-06
0.000188856
-8.75573e-06
0.000190321
-8.68928e-06
0.000191774
-8.61348e-06
0.000193211
-8.52816e-06
0.000194631
-8.43311e-06
0.000196033
-8.32808e-06
0.000197414
-8.21274e-06
0.000198774
-8.08673e-06
0.000200111
-7.9496e-06
0.000201422
-7.80082e-06
0.000202706
-7.63978e-06
0.000203961
-7.46575e-06
0.000205185
-7.2779e-06
0.000206376
-7.07524e-06
0.000207531
-6.85662e-06
0.000208649
-6.62071e-06
0.000209726
-6.36594e-06
0.000210761
-6.0905e-06
0.000211751
-5.79227e-06
0.000212693
-5.46877e-06
0.000213584
-5.11709e-06
0.000214422
-4.73385e-06
0.000215204
-4.31506e-06
0.000215928
-3.85608e-06
0.00021659
-3.35147e-06
0.000217191
-2.79491e-06
0.000217728
-2.17904e-06
0.000218204
-1.49543e-06
0.000218622
-7.34449e-07
0.000218989
1.14622e-07
0.000219316
1.06299e-06
0.000219622
2.12197e-06
0.000219938
3.3031e-06
0.000220305
4.61605e-06
0.000220781
6.0664e-06
0.000221442
7.65227e-06
0.000222383
9.35939e-06
0.000223713
1.11546e-05
0.000225535
1.29779e-05
0.000227913
1.47352e-05
1.62982e-05
0.000230809
0.000149644
-1.00457e-06
0.000149928
-1.95021e-06
0.000150337
-2.77013e-06
0.000150859
-3.49825e-06
0.000151482
-4.15175e-06
0.000152197
-4.74278e-06
0.000152996
-5.2805e-06
0.000153871
-5.77209e-06
0.000154816
-6.22319e-06
0.000155825
-6.6383e-06
0.000156893
-7.0211e-06
0.000158016
-7.37467e-06
0.000159189
-7.70154e-06
0.000160409
-8.00391e-06
0.000161672
-8.2836e-06
0.000162975
-8.5422e-06
0.000164314
-8.78108e-06
0.000165686
-9.00142e-06
0.00016709
-9.20424e-06
0.000168521
-9.39046e-06
0.000169979
-9.56087e-06
0.000171459
-9.71614e-06
0.000172961
-9.85691e-06
0.000174482
-9.98372e-06
0.000176019
-1.00971e-05
0.000177571
-1.01973e-05
0.000179136
-1.02849e-05
0.000180712
-1.03602e-05
0.000182296
-1.04235e-05
0.000183888
-1.0475e-05
0.000185484
-1.0515e-05
0.000187085
-1.05436e-05
0.000188687
-1.05611e-05
0.000190289
-1.05676e-05
0.000191889
-1.05633e-05
0.000193487
-1.05481e-05
0.000195079
-1.05223e-05
0.000196665
-1.04857e-05
0.000198242
-1.04385e-05
0.00019981
-1.03806e-05
0.000201366
-1.0312e-05
0.000202909
-1.02325e-05
0.000204438
-1.0142e-05
0.00020595
-1.00404e-05
0.000207445
-9.92741e-06
0.000208919
-9.80278e-06
0.000210373
-9.66616e-06
0.000211803
-9.51716e-06
0.000213209
-9.3553e-06
0.000214588
-9.18003e-06
0.000215939
-8.99068e-06
0.00021726
-8.7865e-06
0.000218549
-8.5666e-06
0.000219803
-8.32997e-06
0.000221022
-8.0754e-06
0.000222203
-7.80154e-06
0.000223344
-7.5068e-06
0.000224443
-7.18937e-06
0.000225498
-6.84716e-06
0.000226507
-6.47774e-06
0.000227468
-6.07837e-06
0.00022838
-5.64587e-06
0.000229241
-5.17662e-06
0.000230052
-4.66652e-06
0.000230811
-4.11092e-06
0.000231521
-3.50462e-06
0.000232184
-2.84187e-06
0.000232805
-2.11641e-06
0.000233392
-1.32158e-06
0.000233957
-4.50508e-07
0.000234516
5.03379e-07
0.000235094
1.54477e-06
0.00023572
2.67694e-06
0.000236435
3.90032e-06
0.000237291
5.21055e-06
0.000238347
6.59629e-06
0.00023967
8.03678e-06
0.000241325
9.49917e-06
0.000243366
1.09365e-05
0.000245814
1.22877e-05
1.34823e-05
0.00024863
0.00016012
-1.14808e-06
0.000160414
-2.24456e-06
0.000160841
-3.19666e-06
0.000161386
-4.04372e-06
0.000162039
-4.80482e-06
0.00016279
-5.49339e-06
0.000163629
-6.11991e-06
0.00016455
-6.69263e-06
0.000165545
-7.21808e-06
0.000166608
-7.7015e-06
0.000167734
-8.14719e-06
0.000168918
-8.55869e-06
0.000170156
-8.93902e-06
0.000171443
-9.29069e-06
0.000172775
-9.61586e-06
0.00017415
-9.91638e-06
0.000175562
-1.01939e-05
0.000177011
-1.04497e-05
0.000178492
-1.0685e-05
0.000180002
-1.09009e-05
0.00018154
-1.10984e-05
0.000183102
-1.12781e-05
0.000184686
-1.1441e-05
0.00018629
-1.15875e-05
0.000187911
-1.17182e-05
0.000189548
-1.18338e-05
0.000191197
-1.19345e-05
0.000192858
-1.20209e-05
0.000194528
-1.20932e-05
0.000196205
-1.21518e-05
0.000197887
-1.21969e-05
0.000199572
-1.22288e-05
0.000201259
-1.22478e-05
0.000202945
-1.2254e-05
0.00020463
-1.22475e-05
0.00020631
-1.22284e-05
0.000207985
-1.21969e-05
0.000209652
-1.21531e-05
0.00021131
-1.20968e-05
0.000212958
-1.20282e-05
0.000214593
-1.19471e-05
0.000216214
-1.18535e-05
0.00021782
-1.17473e-05
0.000219408
-1.16282e-05
0.000220976
-1.14962e-05
0.000222524
-1.13508e-05
0.00022405
-1.11917e-05
0.000225551
-1.10186e-05
0.000227027
-1.08309e-05
0.000228475
-1.06281e-05
0.000229894
-1.04095e-05
0.000231282
-1.01744e-05
0.000232637
-9.92183e-06
0.000233958
-9.65086e-06
0.000235243
-9.3603e-06
0.00023649
-9.04883e-06
0.000237698
-8.71493e-06
0.000238866
-8.35692e-06
0.000239992
-7.97284e-06
0.000241074
-7.56054e-06
0.000242113
-7.11757e-06
0.000243109
-6.64122e-06
0.000244061
-6.12848e-06
0.00024497
-5.57607e-06
0.00024584
-4.98044e-06
0.000246673
-4.33783e-06
0.000247475
-3.64436e-06
0.000248255
-2.89616e-06
0.000249023
-2.0896e-06
0.000249794
-1.22149e-06
0.000250587
-2.89324e-07
0.000251424
7.07391e-07
0.000252335
1.766e-06
0.000253354
2.88115e-06
0.000254521
4.04359e-06
0.000255878
5.23892e-06
0.000257468
6.44663e-06
0.000259328
7.63958e-06
0.00026148
8.78426e-06
0.000263925
9.84259e-06
1.07761e-05
0.000266631
0.000171329
-1.29607e-06
0.000171634
-2.54963e-06
0.000172078
-3.64056e-06
0.000172647
-4.61288e-06
0.00017333
-5.48767e-06
0.000174116
-6.27953e-06
0.000174996
-7.00016e-06
0.000175963
-7.65891e-06
0.000177008
-8.26322e-06
0.000178125
-8.81908e-06
0.00017931
-9.33142e-06
0.000180555
-9.80433e-06
0.000181858
-1.02412e-05
0.000183212
-1.06451e-05
0.000184615
-1.10183e-05
0.000186062
-1.13631e-05
0.000187549
-1.16813e-05
0.000189074
-1.19745e-05
0.000190633
-1.2244e-05
0.000192224
-1.24912e-05
0.000193842
-1.2717e-05
0.000195487
-1.29224e-05
0.000197154
-1.31082e-05
0.000198842
-1.32753e-05
0.000200548
-1.34241e-05
0.00020227
-1.35554e-05
0.000204005
-1.36696e-05
0.000205751
-1.37673e-05
0.000207507
-1.38487e-05
0.00020927
-1.39144e-05
0.000211038
-1.39646e-05
0.000212808
-1.39995e-05
0.00021458
-1.40196e-05
0.000216351
-1.40249e-05
0.00021812
-1.40157e-05
0.000219883
-1.39921e-05
0.000221641
-1.39542e-05
0.00022339
-1.39022e-05
0.000225129
-1.3836e-05
0.000226857
-1.37556e-05
0.000228571
-1.36611e-05
0.00023027
-1.35524e-05
0.000231952
-1.34293e-05
0.000233615
-1.32918e-05
0.000235259
-1.31395e-05
0.00023688
-1.29722e-05
0.000238478
-1.27896e-05
0.000240051
-1.25914e-05
0.000241597
-1.23769e-05
0.000243115
-1.21458e-05
0.000244603
-1.18974e-05
0.000246059
-1.16309e-05
0.000247483
-1.13455e-05
0.000248873
-1.10403e-05
0.000250227
-1.07143e-05
0.000251544
-1.03662e-05
0.000252824
-9.99469e-06
0.000254065
-9.59832e-06
0.000255268
-9.17543e-06
0.000256431
-8.72423e-06
0.000257556
-8.24276e-06
0.000258644
-7.72895e-06
0.000259696
-7.18058e-06
0.000260716
-6.59536e-06
0.000261706
-5.971e-06
0.000262674
-5.30527e-06
0.000263625
-4.59617e-06
0.000264571
-3.84206e-06
0.000265523
-3.04192e-06
0.000266498
-2.19558e-06
0.000267512
-1.30399e-06
0.000268589
-3.69225e-07
0.000269751
6.03808e-07
0.000271025
1.60704e-06
0.000272439
2.62909e-06
0.000274022
3.65628e-06
0.000275797
4.6712e-06
0.000277783
5.65349e-06
0.000279987
6.58058e-06
0.0002824
7.42927e-06
8.17877e-06
0.000284998
0.000183322
-1.44874e-06
0.000183638
-2.86541e-06
0.000184099
-4.10173e-06
0.000184692
-5.20556e-06
0.000185405
-6.2001e-06
0.000186226
-7.10099e-06
0.000187147
-7.92108e-06
0.000188159
-8.67081e-06
0.000189254
-9.35855e-06
0.000190426
-9.99106e-06
0.000191669
-1.05739e-05
0.000192976
-1.11117e-05
0.000194344
-1.16084e-05
0.000195766
-1.20674e-05
0.000197239
-1.24913e-05
0.000198759
-1.28828e-05
0.000200322
-1.32438e-05
0.000201923
-1.35763e-05
0.000203561
-1.38818e-05
0.000205232
-1.41616e-05
0.000206932
-1.44171e-05
0.000208659
-1.46492e-05
0.00021041
-1.48591e-05
0.000212182
-1.50474e-05
0.000213973
-1.52149e-05
0.00021578
-1.53624e-05
0.000217601
-1.54905e-05
0.000219434
-1.55996e-05
0.000221275
-1.56902e-05
0.000223124
-1.57629e-05
0.000224977
-1.58179e-05
0.000226833
-1.58556e-05
0.00022869
-1.58763e-05
0.000230546
-1.58802e-05
0.000232398
-1.58677e-05
0.000234245
-1.58388e-05
0.000236084
-1.57938e-05
0.000237915
-1.57327e-05
0.000239735
-1.56556e-05
0.000241542
-1.55626e-05
0.000243334
-1.54537e-05
0.000245111
-1.53288e-05
0.000246869
-1.51878e-05
0.000248608
-1.50307e-05
0.000250326
-1.48572e-05
0.000252021
-1.46671e-05
0.000253691
-1.44601e-05
0.000255336
-1.42359e-05
0.000256953
-1.3994e-05
0.000258541
-1.37341e-05
0.0002601
-1.34555e-05
0.000261626
-1.31576e-05
0.000263121
-1.28397e-05
0.000264581
-1.2501e-05
0.000266007
-1.21405e-05
0.000267399
-1.17574e-05
0.000268755
-1.13506e-05
0.000270075
-1.09188e-05
0.000271361
-1.04609e-05
0.000272612
-9.97558e-06
0.000273831
-9.46142e-06
0.000275019
-8.91709e-06
0.000276179
-8.34126e-06
0.000277317
-7.73271e-06
0.000278436
-7.09037e-06
0.000279544
-6.41346e-06
0.00028065
-5.70162e-06
0.000281763
-4.95504e-06
0.000282895
-4.17468e-06
0.000284062
-3.36248e-06
0.00028528
-2.52149e-06
0.000286566
-1.65604e-06
0.000287942
-7.71543e-07
0.000289424
1.24411e-07
0.000291032
1.02149e-06
0.000292781
1.90755e-06
0.000294683
2.76839e-06
0.000296747
3.58995e-06
0.00029897
4.35748e-06
0.000301342
5.05707e-06
5.6776e-06
0.000303843
0.000196156
-1.60625e-06
0.000196482
-3.19188e-06
0.000196961
-4.58003e-06
0.000197577
-5.82157e-06
0.000198318
-6.94181e-06
0.000199175
-7.95742e-06
0.000200136
-8.88231e-06
0.000201193
-9.72799e-06
0.000202339
-1.05038e-05
0.000203565
-1.12171e-05
0.000204865
-1.18743e-05
0.000206234
-1.24806e-05
0.000207666
-1.30404e-05
0.000209156
-1.35573e-05
0.0002107
-1.40347e-05
0.000212292
-1.44752e-05
0.00021393
-1.48813e-05
0.000215609
-1.52549e-05
0.000217325
-1.5598e-05
0.000219076
-1.5912e-05
0.000220857
-1.61984e-05
0.000222666
-1.64585e-05
0.000224501
-1.66932e-05
0.000226357
-1.69035e-05
0.000228232
-1.70904e-05
0.000230125
-1.72545e-05
0.000232031
-1.73966e-05
0.000233949
-1.75173e-05
0.000235876
-1.76172e-05
0.00023781
-1.76966e-05
0.000239748
-1.77562e-05
0.000241689
-1.77962e-05
0.00024363
-1.78171e-05
0.000245569
-1.78192e-05
0.000247504
-1.78026e-05
0.000249433
-1.77678e-05
0.000251354
-1.77147e-05
0.000253265
-1.76438e-05
0.000255164
-1.75549e-05
0.00025705
-1.74483e-05
0.00025892
-1.73239e-05
0.000260774
-1.71818e-05
0.000262608
-1.7022e-05
0.000264422
-1.68444e-05
0.000266213
-1.66487e-05
0.000267981
-1.6435e-05
0.000269724
-1.62029e-05
0.000271441
-1.59522e-05
0.000273129
-1.56826e-05
0.000274789
-1.53937e-05
0.000276418
-1.5085e-05
0.000278017
-1.47561e-05
0.000279584
-1.44064e-05
0.000281118
-1.40353e-05
0.00028262
-1.36422e-05
0.000284089
-1.32264e-05
0.000285525
-1.2787e-05
0.00028693
-1.23235e-05
0.000288304
-1.18349e-05
0.000289649
-1.13205e-05
0.000290967
-1.07798e-05
0.000292262
-1.02119e-05
0.000293537
-9.61653e-06
0.000294798
-8.99339e-06
0.00029605
-8.34251e-06
0.000297301
-7.66432e-06
0.000298559
-6.95973e-06
0.000299834
-6.23026e-06
0.000301137
-5.47816e-06
0.000302481
-4.70654e-06
0.000303879
-3.91946e-06
0.000305345
-3.12199e-06
0.000306894
-2.32023e-06
0.000308539
-1.52115e-06
0.000310293
-7.32083e-07
0.000312163
3.79764e-08
0.000314152
7.78425e-07
0.000316263
1.47961e-06
0.000318488
2.1318e-06
0.000320819
2.7263e-06
3.25752e-06
0.000323239
0.000209888
-1.76869e-06
0.000210225
-3.52897e-06
0.00021072
-5.07523e-06
0.000211359
-6.46054e-06
0.00021213
-7.71234e-06
0.00021302
-8.84828e-06
0.000214021
-9.88326e-06
0.000215123
-1.08298e-05
0.000216318
-1.16982e-05
0.000217597
-1.24966e-05
0.000218955
-1.32321e-05
0.000220385
-1.39104e-05
0.000221881
-1.45364e-05
0.000223438
-1.51143e-05
0.000225051
-1.56477e-05
0.000226716
-1.61396e-05
0.000228428
-1.65928e-05
0.000230182
-1.70096e-05
0.000231976
-1.73919e-05
0.000233806
-1.77416e-05
0.000235668
-1.80602e-05
0.000237559
-1.83491e-05
0.000239475
-1.86096e-05
0.000241415
-1.88427e-05
0.000243374
-1.90493e-05
0.00024535
-1.92305e-05
0.00024734
-1.93869e-05
0.000249342
-1.95192e-05
0.000251354
-1.96282e-05
0.000253371
-1.97143e-05
0.000255393
-1.97782e-05
0.000257417
-1.98201e-05
0.000259441
-1.98407e-05
0.000261462
-1.98402e-05
0.000263479
-1.9819e-05
0.000265488
-1.97773e-05
0.000267489
-1.97155e-05
0.000269479
-1.96338e-05
0.000271457
-1.95322e-05
0.00027342
-1.94111e-05
0.000275366
-1.92704e-05
0.000277295
-1.91103e-05
0.000279204
-1.89308e-05
0.000281091
-1.87318e-05
0.000282956
-1.85134e-05
0.000284796
-1.82754e-05
0.000286611
-1.80178e-05
0.0002884
-1.77404e-05
0.00029016
-1.74429e-05
0.000291892
-1.71252e-05
0.000293594
-1.67869e-05
0.000295265
-1.64279e-05
0.000296907
-1.60476e-05
0.000298517
-1.56458e-05
0.000300097
-1.52222e-05
0.000301647
-1.47763e-05
0.000303168
-1.43077e-05
0.000304661
-1.38163e-05
0.000306127
-1.33016e-05
0.00030757
-1.27636e-05
0.000308993
-1.22021e-05
0.000310398
-1.16173e-05
0.000311791
-1.10095e-05
0.000313177
-1.03792e-05
0.000314562
-9.72739e-06
0.000315953
-9.05535e-06
0.000317358
-8.36487e-06
0.000318786
-7.65827e-06
0.000320246
-6.93847e-06
0.000321749
-6.20905e-06
0.000323303
-5.47426e-06
0.00032492
-4.73904e-06
0.000326609
-4.00895e-06
0.000328378
-3.29006e-06
0.000330235
-2.58881e-06
0.000332184
-1.91183e-06
0.000334228
-1.26491e-06
0.000336362
-6.5453e-07
0.00033858
-8.64186e-08
0.000340872
4.34241e-07
9.04489e-07
0.000343225
0.000224581
-1.93611e-06
0.000224928
-3.87653e-06
0.00022544
-5.58696e-06
0.000226102
-7.12196e-06
0.0002269
-8.511e-06
0.000227825
-9.77275e-06
0.000228865
-1.0923e-05
0.00023001
-1.19753e-05
0.000231253
-1.29407e-05
0.000232585
-1.38284e-05
0.000233998
-1.46459e-05
0.000235488
-1.53997e-05
0.000237047
-1.60951e-05
0.00023867
-1.67369e-05
0.000240351
-1.73289e-05
0.000242086
-1.78747e-05
0.00024387
-1.83771e-05
0.0002457
-1.88388e-05
0.00024757
-1.9262e-05
0.000249477
-1.96488e-05
0.000251418
-2.00008e-05
0.000253389
-2.03196e-05
0.000255386
-2.06066e-05
0.000257406
-2.0863e-05
0.000259447
-2.109e-05
0.000261505
-2.12884e-05
0.000263578
-2.14592e-05
0.000265662
-2.16033e-05
0.000267755
-2.17213e-05
0.000269855
-2.18138e-05
0.000271958
-2.18815e-05
0.000274063
-2.1925e-05
0.000276167
-2.19447e-05
0.000278268
-2.1941e-05
0.000280364
-2.19144e-05
0.000282452
-2.18653e-05
0.00028453
-2.17939e-05
0.000286597
-2.17005e-05
0.00028865
-2.15855e-05
0.000290688
-2.1449e-05
0.000292709
-2.12912e-05
0.000294711
-2.11123e-05
0.000296693
-2.09123e-05
0.000298653
-2.06915e-05
0.000300589
-2.04498e-05
0.000302501
-2.01873e-05
0.000304387
-1.9904e-05
0.000306247
-1.95998e-05
0.000308079
-1.92748e-05
0.000309883
-1.89288e-05
0.000311658
-1.85619e-05
0.000313404
-1.81739e-05
0.000315121
-1.77647e-05
0.000316809
-1.73343e-05
0.00031847
-1.68826e-05
0.000320103
-1.64097e-05
0.000321711
-1.59155e-05
0.000323295
-1.54002e-05
0.000324857
-1.4864e-05
0.000326401
-1.43073e-05
0.000327929
-1.37306e-05
0.000329447
-1.31345e-05
0.000330957
-1.25201e-05
0.000332466
-1.18884e-05
0.00033398
-1.12412e-05
0.000335505
-1.05801e-05
0.000337048
-9.90755e-06
0.000338615
-9.22618e-06
0.000340216
-8.53911e-06
0.000341857
-7.84991e-06
0.000343545
-7.16253e-06
0.000345287
-6.48131e-06
0.000347089
-5.8109e-06
0.000348955
-5.15613e-06
0.000350888
-4.52189e-06
0.000352889
-3.91299e-06
0.000354958
-3.3339e-06
0.000357093
-2.78881e-06
0.000359287
-2.28113e-06
0.000361534
-1.81274e-06
-1.38478e-06
0.000363823
0.000240302
-2.10842e-06
0.00024066
-4.23429e-06
0.000241188
-6.11467e-06
0.000241871
-7.80506e-06
0.000242697
-9.33683e-06
0.000243654
-1.07297e-05
0.000244731
-1.20002e-05
0.000245919
-1.31629e-05
0.000247208
-1.42298e-05
0.00024859
-1.52107e-05
0.000250059
-1.6114e-05
0.000251606
-1.69467e-05
0.000253225
-1.77147e-05
0.000254912
-1.84231e-05
0.000256659
-1.90763e-05
0.000258463
-1.96781e-05
0.000260318
-2.02318e-05
0.000262219
-2.07402e-05
0.000264163
-2.12058e-05
0.000266145
-2.1631e-05
0.000268162
-2.20175e-05
0.00027021
-2.23671e-05
0.000272285
-2.26814e-05
0.000274384
-2.29617e-05
0.000276503
-2.32093e-05
0.00027864
-2.34253e-05
0.000280792
-2.36107e-05
0.000282955
-2.37664e-05
0.000285127
-2.38932e-05
0.000287306
-2.39919e-05
0.000289487
-2.40631e-05
0.00029167
-2.41076e-05
0.000293851
-2.41258e-05
0.000296029
-2.41184e-05
0.0002982
-2.40857e-05
0.000300364
-2.40283e-05
0.000302516
-2.39466e-05
0.000304657
-2.38409e-05
0.000306783
-2.37117e-05
0.000308893
-2.35591e-05
0.000310986
-2.33835e-05
0.000313059
-2.31852e-05
0.000315111
-2.29644e-05
0.000317141