/*--------------------------------*- C++ -*----------------------------------*\
| =========                 |                                                 |
| \\      /  F ield         | OpenFOAM: The Open Source CFD Toolbox           |
|  \\    /   O peration     | Version:  2106                                  |
|   \\  /    A nd           | Website:  www.openfoam.com                      |
|    \\/     M anipulation  |                                                 |
\*---------------------------------------------------------------------------*/
FoamFile
{
    version     2.0;
    format      ascii;
    arch        "LSB;label=32;scalar=64";
    class       volScalarField;
    location    "9.6";
    object      T;
}
// * * * * * * * * * * * * * * * * * * * * * * * * * * * * * * * * * * * * * //

dimensions      [0 0 0 1 0 0 0];

internalField   nonuniform List<scalar> 
12013
(
300.004
300.011
300.019
300.027
300.035
300.044
300.053
300.063
300.072
300.083
300.093
300.104
300.115
300.127
300.139
300.151
300.164
300.177
300.191
300.205
300.22
300.235
300.25
300.266
300.283
300.3
300.317
300.335
300.354
300.373
300.393
300.413
300.434
300.455
300.477
300.5
300.523
300.547
300.572
300.597
300.623
300.65
300.677
300.705
300.734
300.764
300.795
300.827
300.859
300.892
300.926
300.962
300.998
301.035
301.073
301.113
301.153
301.195
301.238
301.283
301.328
301.375
301.424
301.474
301.526
301.58
301.635
301.693
301.753
301.815
301.88
301.948
302.019
302.094
302.173
302.257
302.348
302.446
302.554
302.677
302.824
300.004
300.011
300.019
300.027
300.035
300.044
300.053
300.063
300.072
300.083
300.093
300.104
300.115
300.127
300.139
300.151
300.164
300.177
300.191
300.205
300.22
300.235
300.25
300.266
300.283
300.3
300.317
300.335
300.354
300.373
300.393
300.413
300.434
300.455
300.477
300.5
300.523
300.547
300.572
300.597
300.623
300.65
300.677
300.705
300.734
300.764
300.795
300.826
300.859
300.892
300.926
300.962
300.998
301.035
301.073
301.113
301.153
301.195
301.238
301.282
301.328
301.375
301.423
301.474
301.525
301.579
301.634
301.692
301.752
301.814
301.878
301.946
302.017
302.091
302.169
302.253
302.341
302.437
302.541
302.656
302.782
300.004
300.011
300.019
300.027
300.035
300.044
300.053
300.063
300.072
300.083
300.093
300.104
300.115
300.127
300.139
300.151
300.164
300.177
300.191
300.205
300.22
300.235
300.25
300.266
300.283
300.3
300.317
300.335
300.354
300.373
300.393
300.413
300.434
300.455
300.477
300.5
300.523
300.547
300.571
300.597
300.623
300.649
300.677
300.705
300.734
300.764
300.795
300.826
300.859
300.892
300.926
300.961
300.997
301.035
301.073
301.112
301.153
301.194
301.237
301.281
301.327
301.374
301.422
301.472
301.524
301.577
301.632
301.69
301.749
301.811
301.875
301.942
302.011
302.085
302.162
302.243
302.329
302.42
302.517
302.62
302.728
300.004
300.011
300.019
300.027
300.035
300.044
300.053
300.063
300.072
300.083
300.093
300.104
300.115
300.127
300.139
300.151
300.164
300.177
300.191
300.205
300.22
300.235
300.25
300.266
300.283
300.3
300.317
300.335
300.354
300.373
300.393
300.413
300.434
300.455
300.477
300.5
300.523
300.547
300.571
300.597
300.623
300.649
300.677
300.705
300.734
300.764
300.794
300.826
300.858
300.891
300.925
300.961
300.997
301.034
301.072
301.111
301.152
301.193
301.236
301.28
301.325
301.372
301.42
301.47
301.521
301.574
301.629
301.686
301.745
301.806
301.869
301.935
302.003
302.075
302.149
302.228
302.31
302.395
302.485
302.577
302.67
300.004
300.011
300.019
300.027
300.035
300.044
300.053
300.063
300.072
300.083
300.093
300.104
300.115
300.127
300.139
300.151
300.164
300.177
300.191
300.205
300.22
300.235
300.25
300.266
300.283
300.3
300.317
300.335
300.354
300.373
300.392
300.413
300.433
300.455
300.477
300.499
300.523
300.547
300.571
300.596
300.622
300.649
300.676
300.705
300.734
300.763
300.794
300.825
300.857
300.891
300.925
300.96
300.996
301.033
301.071
301.11
301.15
301.191
301.234
301.278
301.323
301.369
301.417
301.467
301.518
301.57
301.624
301.68
301.738
301.798
301.86
301.925
301.991
302.061
302.133
302.207
302.285
302.365
302.446
302.529
302.611
300.004
300.011
300.019
300.027
300.035
300.044
300.053
300.063
300.072
300.083
300.093
300.104
300.115
300.127
300.139
300.151
300.164
300.177
300.191
300.205
300.22
300.235
300.25
300.266
300.283
300.3
300.317
300.335
300.354
300.373
300.392
300.413
300.433
300.455
300.477
300.499
300.522
300.546
300.571
300.596
300.622
300.649
300.676
300.704
300.733
300.763
300.793
300.824
300.857
300.89
300.924
300.959
300.994
301.031
301.069
301.108
301.148
301.189
301.232
301.275
301.32
301.366
301.413
301.462
301.512
301.564
301.618
301.673
301.73
301.788
301.849
301.912
301.976
302.043
302.112
302.182
302.255
302.329
302.404
302.478
302.552
300.004
300.011
300.019
300.027
300.035
300.044
300.053
300.063
300.072
300.083
300.093
300.104
300.115
300.127
300.139
300.151
300.164
300.177
300.191
300.205
300.22
300.235
300.25
300.266
300.283
300.3
300.317
300.335
300.353
300.373
300.392
300.412
300.433
300.454
300.476
300.499
300.522
300.546
300.57
300.596
300.621
300.648
300.675
300.703
300.732
300.762
300.792
300.823
300.855
300.888
300.922
300.957
300.993
301.029
301.067
301.106
301.145
301.186
301.228
301.271
301.316
301.361
301.408
301.456
301.506
301.557
301.609
301.663
301.719
301.776
301.835
301.895
301.957
302.021
302.086
302.153
302.221
302.289
302.358
302.426
302.493
300.004
300.011
300.019
300.027
300.035
300.044
300.053
300.063
300.072
300.083
300.093
300.104
300.115
300.127
300.139
300.151
300.164
300.177
300.191
300.205
300.22
300.235
300.25
300.266
300.282
300.299
300.317
300.335
300.353
300.372
300.392
300.412
300.433
300.454
300.476
300.499
300.522
300.545
300.57
300.595
300.621
300.647
300.675
300.702
300.731
300.761
300.791
300.822
300.854
300.887
300.92
300.955
300.99
301.027
301.064
301.103
301.142
301.182
301.224
301.267
301.31
301.355
301.402
301.449
301.498
301.548
301.599
301.652
301.706
301.761
301.818
301.876
301.935
301.996
302.057
302.12
302.183
302.246
302.309
302.371
302.433
300.004
300.011
300.019
300.027
300.035
300.044
300.053
300.063
300.072
300.082
300.093
300.104
300.115
300.127
300.139
300.151
300.164
300.177
300.191
300.205
300.219
300.235
300.25
300.266
300.282
300.299
300.317
300.335
300.353
300.372
300.392
300.412
300.432
300.454
300.476
300.498
300.521
300.545
300.569
300.594
300.62
300.646
300.673
300.701
300.73
300.759
300.789
300.82
300.852
300.885
300.918
300.952
300.988
301.024
301.061
301.099
301.138
301.178
301.219
301.261
301.304
301.348
301.393
301.44
301.488
301.536
301.586
301.637
301.69
301.743
301.798
301.853
301.91
301.967
302.025
302.083
302.142
302.201
302.259
302.316
302.372
300.004
300.011
300.019
300.027
300.035
300.044
300.053
300.063
300.072
300.082
300.093
300.104
300.115
300.127
300.139
300.151
300.164
300.177
300.191
300.205
300.219
300.234
300.25
300.266
300.282
300.299
300.316
300.334
300.353
300.372
300.391
300.411
300.432
300.453
300.475
300.497
300.52
300.544
300.568
300.593
300.619
300.645
300.672
300.7
300.728
300.758
300.788
300.818
300.85
300.882
300.915
300.949
300.984
301.02
301.056
301.094
301.132
301.172
301.212
301.254
301.296
301.339
301.384
301.429
301.475
301.523
301.571
301.621
301.671
301.722
301.775
301.827
301.881
301.935
301.989
302.044
302.099
302.153
302.207
302.26
302.312
300.004
300.011
300.019
300.027
300.035
300.044
300.053
300.063
300.072
300.082
300.093
300.104
300.115
300.127
300.139
300.151
300.164
300.177
300.191
300.205
300.219
300.234
300.25
300.266
300.282
300.299
300.316
300.334
300.352
300.371
300.391
300.411
300.431
300.453
300.474
300.497
300.52
300.543
300.567
300.592
300.618
300.644
300.671
300.698
300.727
300.755
300.785
300.816
300.847
300.879
300.912
300.945
300.98
301.015
301.051
301.088
301.126
301.165
301.205
301.245
301.287
301.329
301.372
301.416
301.461
301.507
301.554
301.602
301.65
301.699
301.749
301.799
301.849
301.9
301.951
302.002
302.053
302.103
302.153
302.202
302.251
300.004
300.011
300.019
300.027
300.035
300.044
300.053
300.063
300.072
300.082
300.093
300.104
300.115
300.127
300.138
300.151
300.164
300.177
300.191
300.205
300.219
300.234
300.249
300.265
300.282
300.299
300.316
300.334
300.352
300.371
300.39
300.41
300.431
300.452
300.474
300.496
300.519
300.542
300.566
300.591
300.616
300.642
300.669
300.696
300.724
300.753
300.782
300.813
300.844
300.875
300.908
300.941
300.975
301.01
301.045
301.082
301.119
301.157
301.196
301.235
301.276
301.317
301.359
301.402
301.445
301.489
301.534
301.58
301.626
301.673
301.72
301.767
301.815
301.863
301.911
301.958
302.006
302.053
302.099
302.144
302.189
300.004
300.011
300.019
300.027
300.035
300.044
300.053
300.063
300.072
300.082
300.093
300.104
300.115
300.126
300.138
300.151
300.164
300.177
300.19
300.204
300.219
300.234
300.249
300.265
300.281
300.298
300.315
300.333
300.352
300.37
300.39
300.41
300.43
300.451
300.473
300.495
300.517
300.541
300.565
300.589
300.614
300.64
300.667
300.694
300.721
300.75
300.779
300.809
300.839
300.871
300.903
300.935
300.969
301.003
301.038
301.074
301.11
301.147
301.185
301.224
301.263
301.303
301.344
301.385
301.427
301.469
301.512
301.556
301.6
301.644
301.689
301.734
301.778
301.823
301.868
301.912
301.957
302
302.043
302.086
302.127
300.004
300.011
300.019
300.027
300.035
300.044
300.053
300.062
300.072
300.082
300.093
300.104
300.115
300.126
300.138
300.151
300.163
300.177
300.19
300.204
300.219
300.234
300.249
300.265
300.281
300.298
300.315
300.333
300.351
300.37
300.389
300.409
300.429
300.45
300.471
300.493
300.516
300.539
300.563
300.587
300.612
300.638
300.664
300.691
300.718
300.746
300.775
300.805
300.835
300.866
300.897
300.929
300.962
300.995
301.03
301.064
301.1
301.136
301.173
301.21
301.248
301.287
301.326
301.366
301.406
301.447
301.488
301.53
301.571
301.613
301.655
301.698
301.74
301.782
301.824
301.865
301.906
301.947
301.987
302.026
302.065
300.004
300.011
300.019
300.027
300.035
300.044
300.053
300.062
300.072
300.082
300.093
300.103
300.115
300.126
300.138
300.15
300.163
300.176
300.19
300.204
300.218
300.233
300.249
300.264
300.281
300.297
300.314
300.332
300.35
300.369
300.388
300.408
300.428
300.449
300.47
300.492
300.514
300.537
300.561
300.585
300.61
300.635
300.661
300.687
300.715
300.742
300.771
300.8
300.829
300.859
300.89
300.922
300.954
300.987
301.02
301.054
301.089
301.124
301.159
301.196
301.232
301.269
301.307
301.345
301.384
301.423
301.462
301.501
301.541
301.58
301.62
301.66
301.699
301.738
301.778
301.816
301.855
301.893
301.93
301.967
302.003
300.004
300.011
300.019
300.027
300.035
300.044
300.053
300.062
300.072
300.082
300.093
300.103
300.115
300.126
300.138
300.15
300.163
300.176
300.19
300.204
300.218
300.233
300.248
300.264
300.28
300.297
300.314
300.331
300.349
300.368
300.387
300.407
300.427
300.447
300.468
300.49
300.512
300.535
300.558
300.582
300.607
300.632
300.657
300.683
300.71
300.737
300.765
300.794
300.823
300.852
300.883
300.913
300.945
300.977
301.009
301.042
301.076
301.11
301.144
301.179
301.214
301.25
301.286
301.323
301.359
301.396
301.433
301.471
301.508
301.545
301.583
301.62
301.657
301.694
301.73
301.766
301.802
301.838
301.873
301.907
301.941
300.004
300.011
300.019
300.027
300.035
300.044
300.053
300.062
300.072
300.082
300.092
300.103
300.114
300.126
300.138
300.15
300.163
300.176
300.189
300.203
300.218
300.232
300.248
300.263
300.279
300.296
300.313
300.33
300.348
300.367
300.386
300.405
300.425
300.446
300.467
300.488
300.51
300.532
300.556
300.579
300.603
300.628
300.653
300.679
300.705
300.732
300.759
300.787
300.816
300.845
300.874
300.904
300.935
300.966
300.997
301.029
301.061
301.094
301.127
301.161
301.195
301.229
301.263
301.298
301.333
301.368
301.403
301.438
301.473
301.509
301.544
301.579
301.613
301.648
301.682
301.716
301.749
301.782
301.815
301.847
301.878
300.004
300.011
300.019
300.027
300.035
300.044
300.053
300.062
300.072
300.082
300.092
300.103
300.114
300.126
300.138
300.15
300.162
300.176
300.189
300.203
300.217
300.232
300.247
300.263
300.279
300.295
300.312
300.329
300.347
300.366
300.384
300.404
300.423
300.444
300.464
300.486
300.507
300.53
300.552
300.576
300.599
300.624
300.648
300.674
300.699
300.726
300.752
300.78
300.807
300.836
300.864
300.893
300.923
300.953
300.983
301.014
301.045
301.077
301.109
301.141
301.173
301.206
301.239
301.272
301.305
301.338
301.371
301.404
301.437
301.47
301.503
301.536
301.569
301.601
301.633
301.664
301.695
301.726
301.757
301.786
301.816
300.004
300.011
300.019
300.027
300.035
300.044
300.053
300.062
300.072
300.082
300.092
300.103
300.114
300.125
300.137
300.15
300.162
300.175
300.189
300.202
300.217
300.231
300.246
300.262
300.278
300.294
300.311
300.328
300.346
300.364
300.383
300.402
300.421
300.441
300.462
300.483
300.504
300.526
300.549
300.571
300.595
300.619
300.643
300.668
300.693
300.719
300.745
300.771
300.798
300.826
300.854
300.882
300.91
300.939
300.969
300.998
301.028
301.058
301.089
301.12
301.15
301.181
301.213
301.244
301.275
301.306
301.338
301.369
301.4
301.431
301.462
301.493
301.523
301.553
301.583
301.612
301.642
301.67
301.699
301.726
301.754
300.004
300.011
300.019
300.027
300.035
300.044
300.053
300.062
300.072
300.082
300.092
300.103
300.114
300.125
300.137
300.149
300.162
300.175
300.188
300.202
300.216
300.231
300.246
300.261
300.277
300.293
300.31
300.327
300.344
300.362
300.381
300.4
300.419
300.439
300.459
300.48
300.501
300.522
300.544
300.567
300.59
300.613
300.637
300.661
300.686
300.711
300.736
300.762
300.788
300.815
300.842
300.869
300.897
300.924
300.953
300.981
301.01
301.039
301.068
301.097
301.126
301.156
301.185
301.215
301.244
301.274
301.303
301.332
301.362
301.391
301.42
301.448
301.477
301.505
301.533
301.56
301.588
301.614
301.641
301.667
301.692
300.004
300.011
300.019
300.027
300.035
300.044
300.053
300.062
300.072
300.081
300.092
300.102
300.114
300.125
300.137
300.149
300.161
300.174
300.188
300.201
300.215
300.23
300.245
300.26
300.276
300.292
300.308
300.325
300.343
300.36
300.379
300.397
300.416
300.436
300.456
300.476
300.497
300.518
300.54
300.562
300.584
300.607
300.63
300.654
300.678
300.702
300.727
300.752
300.777
300.803
300.829
300.855
300.882
300.908
300.935
300.963
300.99
301.017
301.045
301.073
301.101
301.129
301.156
301.184
301.212
301.24
301.268
301.295
301.323
301.35
301.377
301.404
301.43
301.457
301.483
301.508
301.534
301.559
301.583
301.608
301.632
300.004
300.011
300.019
300.027
300.035
300.044
300.052
300.062
300.071
300.081
300.092
300.102
300.113
300.125
300.136
300.148
300.161
300.174
300.187
300.2
300.214
300.229
300.244
300.259
300.274
300.29
300.307
300.323
300.341
300.358
300.376
300.395
300.413
300.433
300.452
300.472
300.492
300.513
300.534
300.556
300.578
300.6
300.623
300.646
300.669
300.692
300.716
300.741
300.765
300.79
300.815
300.84
300.866
300.891
300.917
300.943
300.969
300.995
301.021
301.048
301.074
301.1
301.127
301.153
301.179
301.205
301.231
301.257
301.283
301.308
301.334
301.359
301.384
301.408
301.433
301.457
301.48
301.504
301.527
301.549
301.572
300.004
300.011
300.019
300.027
300.035
300.043
300.052
300.062
300.071
300.081
300.091
300.102
300.113
300.124
300.136
300.148
300.16
300.173
300.186
300.2
300.213
300.228
300.242
300.257
300.273
300.289
300.305
300.321
300.338
300.356
300.373
300.392
300.41
300.429
300.448
300.468
300.488
300.508
300.529
300.55
300.571
300.593
300.615
300.637
300.659
300.682
300.705
300.729
300.752
300.776
300.8
300.824
300.849
300.873
300.898
300.922
300.947
300.972
300.997
301.022
301.047
301.072
301.096
301.121
301.146
301.17
301.195
301.219
301.243
301.267
301.291
301.314
301.337
301.36
301.383
301.405
301.428
301.449
301.471
301.492
301.513
300.004
300.011
300.019
300.026
300.035
300.043
300.052
300.061
300.071
300.081
300.091
300.102
300.112
300.124
300.135
300.147
300.16
300.172
300.185
300.199
300.212
300.227
300.241
300.256
300.271
300.287
300.303
300.319
300.336
300.353
300.37
300.388
300.406
300.425
300.444
300.463
300.482
300.502
300.522
300.543
300.563
300.585
300.606
300.627
300.649
300.671
300.693
300.716
300.739
300.761
300.784
300.808
300.831
300.854
300.878
300.901
300.925
300.948
300.972
300.995
301.019
301.042
301.066
301.089
301.112
301.135
301.158
301.181
301.203
301.226
301.248
301.27
301.291
301.313
301.334
301.355
301.376
301.396
301.416
301.436
301.456
300.004
300.011
300.018
300.026
300.035
300.043
300.052
300.061
300.071
300.08
300.091
300.101
300.112
300.123
300.135
300.147
300.159
300.171
300.184
300.198
300.211
300.225
300.24
300.254
300.269
300.285
300.301
300.317
300.333
300.35
300.367
300.385
300.402
300.42
300.439
300.458
300.477
300.496
300.516
300.535
300.556
300.576
300.597
300.617
300.638
300.66
300.681
300.703
300.724
300.746
300.768
300.79
300.812
300.835
300.857
300.879
300.902
300.924
300.946
300.968
300.991
301.013
301.035
301.057
301.078
301.1
301.122
301.143
301.164
301.185
301.206
301.226
301.246
301.267
301.286
301.306
301.325
301.344
301.363
301.382
301.4
300.004
300.011
300.018
300.026
300.034
300.043
300.052
300.061
300.07
300.08
300.09
300.101
300.111
300.123
300.134
300.146
300.158
300.17
300.183
300.196
300.21
300.224
300.238
300.253
300.267
300.283
300.298
300.314
300.33
300.347
300.363
300.381
300.398
300.416
300.434
300.452
300.471
300.489
300.508
300.528
300.547
300.567
300.587
300.607
300.627
300.648
300.668
300.689
300.71
300.731
300.752
300.773
300.794
300.815
300.836
300.857
300.878
300.899
300.921
300.942
300.962
300.983
301.004
301.025
301.045
301.065
301.086
301.106
301.125
301.145
301.164
301.184
301.203
301.221
301.24
301.258
301.276
301.294
301.312
301.329
301.346
300.004
300.011
300.018
300.026
300.034
300.043
300.052
300.061
300.07
300.08
300.09
300.1
300.111
300.122
300.133
300.145
300.157
300.169
300.182
300.195
300.209
300.222
300.236
300.251
300.265
300.28
300.295
300.311
300.327
300.343
300.36
300.376
300.393
300.411
300.428
300.446
300.464
300.482
300.501
300.52
300.538
300.557
300.577
300.596
300.616
300.635
300.655
300.675
300.695
300.715
300.735
300.755
300.775
300.795
300.815
300.835
300.855
300.875
300.895
300.915
300.935
300.954
300.974
300.993
301.012
301.032
301.05
301.069
301.088
301.106
301.124
301.142
301.16
301.178
301.195
301.212
301.229
301.246
301.263
301.279
301.295
300.004
300.011
300.018
300.026
300.034
300.043
300.051
300.06
300.07
300.079
300.089
300.1
300.11
300.121
300.133
300.144
300.156
300.168
300.181
300.194
300.207
300.221
300.234
300.248
300.263
300.278
300.293
300.308
300.324
300.339
300.356
300.372
300.389
300.405
300.423
300.44
300.457
300.475
300.493
300.511
300.529
300.548
300.566
300.585
300.604
300.623
300.641
300.66
300.68
300.699
300.718
300.737
300.756
300.775
300.794
300.813
300.832
300.851
300.87
300.889
300.907
300.926
300.944
300.963
300.981
300.999
301.017
301.034
301.052
301.069
301.086
301.103
301.12
301.136
301.153
301.169
301.185
301.2
301.216
301.231
301.246
300.004
300.011
300.018
300.026
300.034
300.042
300.051
300.06
300.069
300.079
300.089
300.099
300.11
300.121
300.132
300.143
300.155
300.167
300.18
300.192
300.205
300.219
300.232
300.246
300.261
300.275
300.29
300.305
300.32
300.336
300.351
300.367
300.384
300.4
300.417
300.434
300.451
300.468
300.485
300.503
300.52
300.538
300.556
300.574
300.592
300.61
300.628
300.646
300.665
300.683
300.701
300.719
300.738
300.756
300.774
300.792
300.81
300.828
300.846
300.864
300.881
300.899
300.916
300.933
300.95
300.967
300.984
301.001
301.017
301.034
301.05
301.066
301.081
301.097
301.112
301.127
301.142
301.157
301.172
301.186
301.2
300.004
300.011
300.018
300.026
300.034
300.042
300.051
300.06
300.069
300.079
300.088
300.099
300.109
300.12
300.131
300.142
300.154
300.166
300.178
300.191
300.204
300.217
300.23
300.244
300.258
300.272
300.287
300.302
300.316
300.332
300.347
300.363
300.379
300.395
300.411
300.427
300.444
300.46
300.477
300.494
300.511
300.528
300.546
300.563
300.58
300.598
300.615
300.632
300.65
300.667
300.685
300.702
300.72
300.737
300.754
300.772
300.789
300.806
300.823
300.84
300.856
300.873
300.889
300.906
300.922
300.938
300.954
300.97
300.985
301.001
301.016
301.031
301.046
301.06
301.075
301.089
301.103
301.117
301.131
301.144
301.158
300.003
300.011
300.018
300.026
300.034
300.042
300.051
300.059
300.069
300.078
300.088
300.098
300.108
300.119
300.13
300.141
300.153
300.165
300.177
300.189
300.202
300.215
300.228
300.242
300.255
300.269
300.284
300.298
300.313
300.328
300.343
300.358
300.374
300.389
300.405
300.421
300.437
300.453
300.47
300.486
300.502
300.519
300.536
300.552
300.569
300.586
300.602
300.619
300.636
300.653
300.669
300.686
300.703
300.719
300.736
300.752
300.769
300.785
300.801
300.817
300.833
300.849
300.864
300.88
300.895
300.911
300.926
300.941
300.955
300.97
300.984
300.999
301.013
301.027
301.04
301.054
301.067
301.08
301.093
301.106
301.119
300.003
300.011
300.018
300.026
300.033
300.042
300.05
300.059
300.068
300.078
300.087
300.097
300.108
300.118
300.129
300.14
300.152
300.163
300.175
300.188
300.2
300.213
300.226
300.239
300.253
300.267
300.281
300.295
300.309
300.324
300.339
300.354
300.369
300.384
300.399
300.415
300.431
300.446
300.462
300.478
300.494
300.51
300.526
300.542
300.558
300.575
300.591
300.607
300.623
300.639
300.655
300.671
300.687
300.703
300.719
300.735
300.75
300.766
300.781
300.796
300.812
300.827
300.842
300.856
300.871
300.886
300.9
300.914
300.928
300.942
300.956
300.97
300.983
300.996
301.009
301.022
301.035
301.048
301.06
301.072
301.084
300.003
300.01
300.018
300.025
300.033
300.041
300.05
300.059
300.068
300.077
300.087
300.097
300.107
300.117
300.128
300.139
300.151
300.162
300.174
300.186
300.199
300.211
300.224
300.237
300.251
300.264
300.278
300.292
300.306
300.32
300.335
300.349
300.364
300.379
300.394
300.409
300.425
300.44
300.455
300.471
300.486
300.502
300.517
300.533
300.549
300.564
300.58
300.596
300.611
300.627
300.642
300.658
300.673
300.688
300.703
300.719
300.734
300.749
300.763
300.778
300.793
300.807
300.821
300.836
300.85
300.864
300.877
300.891
300.904
300.918
300.931
300.944
300.957
300.969
300.982
300.994
301.007
301.019
301.03
301.042
301.054
300.003
300.01
300.018
300.025
300.033
300.041
300.05
300.058
300.067
300.077
300.086
300.096
300.106
300.117
300.127
300.138
300.149
300.161
300.173
300.185
300.197
300.21
300.222
300.235
300.248
300.262
300.275
300.289
300.303
300.317
300.331
300.346
300.36
300.375
300.389
300.404
300.419
300.434
300.449
300.464
300.479
300.494
300.51
300.525
300.54
300.555
300.57
300.586
300.601
300.616
300.631
300.646
300.661
300.675
300.69
300.705
300.719
300.734
300.748
300.762
300.776
300.79
300.804
300.818
300.831
300.845
300.858
300.871
300.884
300.897
300.91
300.922
300.934
300.947
300.959
300.971
300.982
300.994
301.005
301.017
301.028
300.003
300.01
300.018
300.025
300.033
300.041
300.049
300.058
300.067
300.076
300.086
300.095
300.106
300.116
300.126
300.137
300.149
300.16
300.172
300.183
300.196
300.208
300.221
300.233
300.246
300.26
300.273
300.286
300.3
300.314
300.328
300.342
300.356
300.371
300.385
300.4
300.414
300.429
300.444
300.459
300.473
300.488
300.503
300.518
300.533
300.548
300.562
300.577
300.592
300.607
300.621
300.636
300.65
300.665
300.679
300.693
300.707
300.721
300.735
300.749
300.763
300.776
300.79
300.803
300.816
300.829
300.842
300.855
300.867
300.88
300.892
300.904
300.916
300.928
300.94
300.951
300.962
300.974
300.985
300.996
301.006
300.003
300.01
300.017
300.025
300.033
300.041
300.049
300.058
300.067
300.076
300.085
300.095
300.105
300.115
300.126
300.137
300.148
300.159
300.171
300.182
300.194
300.207
300.219
300.232
300.245
300.258
300.271
300.284
300.298
300.312
300.325
300.339
300.353
300.368
300.382
300.396
300.41
300.425
300.439
300.454
300.469
300.483
300.498
300.512
300.527
300.541
300.556
300.57
300.585
300.599
300.613
300.628
300.642
300.656
300.67
300.684
300.698
300.711
300.725
300.738
300.752
300.765
300.778
300.791
300.804
300.817
300.829
300.842
300.854
300.866
300.878
300.89
300.902
300.913
300.925
300.936
300.947
300.958
300.969
300.979
300.99
300.003
300.01
300.017
300.025
300.033
300.041
300.049
300.057
300.066
300.075
300.085
300.094
300.104
300.115
300.125
300.136
300.147
300.158
300.17
300.181
300.193
300.206
300.218
300.231
300.243
300.256
300.269
300.283
300.296
300.31
300.323
300.337
300.351
300.365
300.379
300.393
300.408
300.422
300.436
300.451
300.465
300.479
300.494
300.508
300.522
300.537
300.551
300.565
300.58
300.594
300.608
300.622
300.636
300.65
300.664
300.677
300.691
300.704
300.718
300.731
300.744
300.757
300.77
300.783
300.795
300.808
300.82
300.833
300.845
300.857
300.868
300.88
300.891
300.903
300.914
300.925
300.936
300.947
300.957
300.968
300.978
300.003
300.01
300.017
300.025
300.032
300.04
300.049
300.057
300.066
300.075
300.084
300.094
300.104
300.114
300.125
300.135
300.146
300.158
300.169
300.181
300.193
300.205
300.217
300.23
300.242
300.255
300.268
300.282
300.295
300.308
300.322
300.336
300.35
300.363
300.377
300.392
300.406
300.42
300.434
300.448
300.463
300.477
300.491
300.505
300.52
300.534
300.548
300.562
300.576
300.59
300.604
300.618
300.632
300.646
300.659
300.673
300.686
300.7
300.713
300.726
300.739
300.752
300.765
300.778
300.79
300.802
300.815
300.827
300.839
300.851
300.862
300.874
300.885
300.896
300.907
300.918
300.929
300.94
300.95
300.961
300.971
300.003
300.01
300.017
300.025
300.032
300.04
300.049
300.057
300.066
300.075
300.084
300.094
300.104
300.114
300.124
300.135
300.146
300.157
300.169
300.18
300.192
300.204
300.217
300.229
300.242
300.255
300.268
300.281
300.294
300.308
300.321
300.335
300.349
300.363
300.377
300.391
300.405
300.419
300.433
300.447
300.461
300.476
300.49
300.504
300.518
300.532
300.547
300.561
300.575
300.589
300.603
300.616
300.63
300.644
300.658
300.671
300.684
300.698
300.711
300.724
300.737
300.75
300.762
300.775
300.788
300.8
300.812
300.824
300.836
300.848
300.859
300.871
300.882
300.893
300.904
300.915
300.926
300.937
300.947
300.957
300.968
300.003
300.01
300.017
300.025
300.032
300.04
300.048
300.057
300.066
300.075
300.084
300.094
300.104
300.114
300.124
300.135
300.146
300.157
300.169
300.18
300.192
300.204
300.216
300.229
300.242
300.254
300.267
300.281
300.294
300.307
300.321
300.335
300.348
300.362
300.376
300.39
300.404
300.419
300.433
300.447
300.461
300.475
300.49
300.504
300.518
300.532
300.546
300.56
300.574
300.588
300.602
300.616
300.63
300.644
300.657
300.671
300.684
300.697
300.711
300.724
300.737
300.749
300.762
300.775
300.787
300.799
300.812
300.824
300.836
300.847
300.859
300.87
300.882
300.893
300.904
300.915
300.926
300.936
300.947
300.957
300.967
300.003
300.01
300.017
300.025
300.032
300.04
300.048
300.057
300.066
300.075
300.084
300.094
300.104
300.114
300.124
300.135
300.146
300.157
300.168
300.18
300.192
300.204
300.216
300.229
300.242
300.254
300.267
300.281
300.294
300.307
300.321
300.335
300.348
300.362
300.376
300.39
300.404
300.419
300.433
300.447
300.461
300.475
300.49
300.504
300.518
300.532
300.546
300.561
300.575
300.589
300.603
300.616
300.63
300.644
300.658
300.671
300.684
300.698
300.711
300.724
300.737
300.75
300.763
300.775
300.788
300.8
300.812
300.824
300.836
300.848
300.86
300.871
300.882
300.894
300.905
300.916
300.926
300.937
300.948
300.958
300.968
303.019
303.148
303.226
303.298
303.361
303.413
303.448
303.487
303.527
303.564
303.595
303.63
303.664
303.698
303.732
303.765
303.796
303.824
303.853
303.883
303.912
303.941
303.971
304
304.029
304.057
304.085
304.113
304.141
304.168
304.195
304.222
304.248
304.274
304.3
304.325
304.351
304.376
304.401
304.426
304.451
304.474
304.5
304.527
304.553
304.578
304.602
304.627
304.653
304.678
304.703
304.725
304.749
304.774
304.8
304.825
304.851
304.877
304.903
304.926
304.947
304.97
304.994
305.018
305.043
305.068
305.092
305.117
305.141
305.165
305.189
305.213
305.237
305.26
305.284
305.307
305.331
305.354
305.376
305.402
305.43
305.455
305.479
305.502
305.524
305.545
305.569
305.597
305.622
305.644
305.664
305.688
305.716
305.738
305.764
305.791
305.817
305.839
305.866
305.89
305.912
305.937
305.959
305.984
306.011
306.039
306.064
306.085
306.11
306.131
306.156
306.182
306.21
306.239
306.264
306.284
306.309
306.337
306.364
306.389
306.408
306.431
306.457
306.482
306.507
306.526
306.548
306.571
306.595
306.618
306.64
306.662
306.683
306.703
306.721
306.739
306.756
306.771
306.785
306.797
306.808
306.817
306.824
306.829
306.832
306.832
306.83
306.826
306.818
306.806
306.789
306.769
306.746
306.718
306.685
306.645
306.601
306.523
306.449
306.355
306.232
302.918
303.032
303.12
303.195
303.26
303.315
303.361
303.405
303.447
303.486
303.522
303.559
303.594
303.63
303.664
303.697
303.73
303.76
303.79
303.821
303.851
303.881
303.911
303.94
303.97
303.999
304.027
304.055
304.083
304.111
304.138
304.166
304.192
304.219
304.245
304.271
304.297
304.323
304.348
304.374
304.399
304.423
304.449
304.476
304.502
304.527
304.552
304.577
304.603
304.628
304.653
304.677
304.701
304.726
304.751
304.777
304.803
304.828
304.854
304.878
304.9
304.924
304.948
304.972
304.997
305.022
305.046
305.071
305.096
305.12
305.144
305.168
305.192
305.216
305.24
305.263
305.287
305.311
305.334
305.359
305.386
305.412
305.436
305.459
305.482
305.504
305.529
305.555
305.58
305.603
305.625
305.649
305.675
305.699
305.725
305.751
305.777
305.801
305.826
305.851
305.874
305.899
305.922
305.947
305.974
306.001
306.027
306.049
306.073
306.096
306.121
306.147
306.175
306.203
306.229
306.251
306.276
306.303
306.33
306.354
306.375
306.399
306.425
306.45
306.475
306.495
306.517
306.54
306.564
306.588
306.61
306.632
306.653
306.673
306.692
306.71
306.727
306.743
306.757
306.769
306.78
306.789
306.797
306.802
306.805
306.806
306.804
306.799
306.791
306.78
306.763
306.743
306.719
306.691
306.657
306.616
306.567
306.492
306.414
306.316
306.181
302.836
302.935
303.021
303.096
303.163
303.221
303.272
303.32
303.364
303.406
303.445
303.483
303.521
303.557
303.592
303.627
303.66
303.692
303.724
303.755
303.786
303.817
303.847
303.877
303.907
303.936
303.965
303.994
304.023
304.051
304.079
304.106
304.133
304.16
304.187
304.214
304.24
304.266
304.292
304.318
304.343
304.369
304.395