/*--------------------------------*- C++ -*----------------------------------*\
| =========                 |                                                 |
| \\      /  F ield         | OpenFOAM: The Open Source CFD Toolbox           |
|  \\    /   O peration     | Version:  2106                                  |
|   \\  /    A nd           | Website:  www.openfoam.com                      |
|    \\/     M anipulation  |                                                 |
\*---------------------------------------------------------------------------*/
FoamFile
{
    version     2.0;
    format      ascii;
    arch        "LSB;label=32;scalar=64";
    class       volVectorField;
    location    "9.6";
    object      U;
}
// * * * * * * * * * * * * * * * * * * * * * * * * * * * * * * * * * * * * * //

dimensions      [0 1 -1 0 0 0 0];

internalField   nonuniform List<vector> 
12013
(
(0.10004 -1.12016e-05 0)
(0.100205 -2.07555e-05 0)
(0.100472 -2.96463e-05 0)
(0.100817 -3.78699e-05 0)
(0.101235 -4.56159e-05 0)
(0.101718 -5.29897e-05 0)
(0.10226 -6.0059e-05 0)
(0.102857 -6.6877e-05 0)
(0.103503 -7.34847e-05 0)
(0.104195 -7.99132e-05 0)
(0.104929 -8.61876e-05 0)
(0.105702 -9.23281e-05 0)
(0.106511 -9.8352e-05 0)
(0.107353 -0.000104271 0)
(0.108227 -0.000110098 0)
(0.10913 -0.000115839 0)
(0.110059 -0.000121503 0)
(0.111013 -0.000127095 0)
(0.11199 -0.000132617 0)
(0.112988 -0.000138074 0)
(0.114005 -0.000143467 0)
(0.11504 -0.000148797 0)
(0.116091 -0.000154063 0)
(0.117158 -0.000159265 0)
(0.118237 -0.000164402 0)
(0.119329 -0.00016947 0)
(0.120431 -0.000174466 0)
(0.121543 -0.000179388 0)
(0.122663 -0.000184231 0)
(0.123789 -0.00018899 0)
(0.124922 -0.000193659 0)
(0.126059 -0.000198233 0)
(0.127199 -0.000202703 0)
(0.128341 -0.000207062 0)
(0.129485 -0.000211302 0)
(0.130629 -0.000215412 0)
(0.131771 -0.000219383 0)
(0.132911 -0.000223202 0)
(0.134047 -0.000226857 0)
(0.135179 -0.000230333 0)
(0.136306 -0.000233614 0)
(0.137425 -0.000236683 0)
(0.138537 -0.000239519 0)
(0.139639 -0.000242101 0)
(0.140731 -0.000244404 0)
(0.141811 -0.0002464 0)
(0.142879 -0.000248058 0)
(0.143932 -0.000249341 0)
(0.144969 -0.00025021 0)
(0.145989 -0.000250617 0)
(0.146991 -0.000250511 0)
(0.147971 -0.00024983 0)
(0.14893 -0.000248503 0)
(0.149864 -0.000246446 0)
(0.150772 -0.000243565 0)
(0.151651 -0.000239744 0)
(0.152498 -0.000234849 0)
(0.153311 -0.000228717 0)
(0.154087 -0.000221155 0)
(0.154821 -0.000211927 0)
(0.155509 -0.000200746 0)
(0.156146 -0.000187253 0)
(0.156727 -0.000171007 0)
(0.157244 -0.000151444 0)
(0.157689 -0.00012785 0)
(0.158051 -9.92947e-05 0)
(0.15832 -6.45589e-05 0)
(0.158479 -2.20125e-05 0)
(0.158509 3.05721e-05 0)
(0.158386 9.63565e-05 0)
(0.158076 0.000179875 0)
(0.157536 0.000287799 0)
(0.156705 0.000430261 0)
(0.155499 0.000623163 0)
(0.153794 0.000892349 0)
(0.151402 0.00128133 0)
(0.148036 0.00186612 0)
(0.143212 0.00278787 0)
(0.136122 0.00435265 0)
(0.125642 0.00746468 0)
(0.113604 0.0163966 0)
(0.100037 -3.42019e-05 0)
(0.100201 -6.36354e-05 0)
(0.100467 -9.09408e-05 0)
(0.100811 -0.000116179 0)
(0.101228 -0.000139951 0)
(0.10171 -0.00016258 0)
(0.102252 -0.000184272 0)
(0.102847 -0.000205191 0)
(0.103492 -0.000225462 0)
(0.104183 -0.000245184 0)
(0.104916 -0.000264431 0)
(0.105687 -0.000283267 0)
(0.106496 -0.000301742 0)
(0.107337 -0.000319897 0)
(0.10821 -0.000337765 0)
(0.109111 -0.000355373 0)
(0.110039 -0.000372741 0)
(0.110991 -0.000389885 0)
(0.111967 -0.000406818 0)
(0.112963 -0.000423549 0)
(0.113979 -0.000440082 0)
(0.115013 -0.00045642 0)
(0.116063 -0.000472563 0)
(0.117127 -0.000488507 0)
(0.118205 -0.000504249 0)
(0.119295 -0.000519781 0)
(0.120396 -0.000535094 0)
(0.121506 -0.000550176 0)
(0.122624 -0.000565015 0)
(0.123749 -0.000579596 0)
(0.124879 -0.0005939 0)
(0.126014 -0.00060791 0)
(0.127153 -0.000621603 0)
(0.128293 -0.000634954 0)
(0.129435 -0.000647938 0)
(0.130576 -0.000660526 0)
(0.131716 -0.000672684 0)
(0.132854 -0.000684377 0)
(0.133988 -0.000695565 0)
(0.135118 -0.000706205 0)
(0.136242 -0.000716247 0)
(0.137359 -0.000725636 0)
(0.138468 -0.000734314 0)
(0.139568 -0.000742212 0)
(0.140657 -0.000749254 0)
(0.141735 -0.000755355 0)
(0.1428 -0.000760419 0)
(0.14385 -0.000764338 0)
(0.144885 -0.000766987 0)
(0.145902 -0.000768225 0)
(0.146901 -0.00076789 0)
(0.147879 -0.000765796 0)
(0.148835 -0.000761727 0)
(0.149767 -0.00075543 0)
(0.150672 -0.000746611 0)
(0.151549 -0.000734923 0)
(0.152394 -0.000719956 0)
(0.153206 -0.000701218 0)
(0.153979 -0.00067812 0)
(0.154712 -0.000649948 0)
(0.1554 -0.00061583 0)
(0.156037 -0.000574689 0)
(0.156619 -0.000525184 0)
(0.157138 -0.000465628 0)
(0.157587 -0.000393867 0)
(0.157956 -0.000307123 0)
(0.158234 -0.000201757 0)
(0.158406 -7.29323e-05 0)
(0.158455 8.59033e-05 0)
(0.158359 0.000283896 0)
(0.158089 0.000534042 0)
(0.157609 0.000855204 0)
(0.156868 0.00127549 0)
(0.155802 0.00183793 0)
(0.15432 0.00261022 0)
(0.152302 0.0037014 0)
(0.149582 0.00529006 0)
(0.145935 0.00767162 0)
(0.141082 0.0113393 0)
(0.135038 0.0170276 0)
(0.130149 0.0251593 0)
(0.100034 -5.81352e-05 0)
(0.100196 -0.000109155 0)
(0.100459 -0.000156184 0)
(0.100802 -0.000199639 0)
(0.101216 -0.000240562 0)
(0.101696 -0.000279509 0)
(0.102236 -0.000316838 0)
(0.102829 -0.000352833 0)
(0.103472 -0.000387712 0)
(0.10416 -0.00042164 0)
(0.104891 -0.000454752 0)
(0.10566 -0.000487153 0)
(0.106466 -0.000518932 0)
(0.107305 -0.000550158 0)
(0.108175 -0.000580889 0)
(0.109074 -0.00061117 0)
(0.109999 -0.000641036 0)
(0.110949 -0.000670517 0)
(0.111922 -0.000699632 0)
(0.112916 -0.000728397 0)
(0.113928 -0.00075682 0)
(0.114959 -0.000784906 0)
(0.116006 -0.000812653 0)
(0.117067 -0.000840059 0)
(0.118142 -0.000867113 0)
(0.119228 -0.000893804 0)
(0.120326 -0.000920116 0)
(0.121432 -0.00094603 0)
(0.122546 -0.000971522 0)
(0.123667 -0.000996568 0)
(0.124794 -0.00102114 0)
(0.125925 -0.0010452 0)
(0.127059 -0.00106871 0)
(0.128196 -0.00109163 0)
(0.129333 -0.00111392 0)
(0.13047 -0.00113552 0)
(0.131606 -0.00115638 0)
(0.132739 -0.00117644 0)
(0.133868 -0.00119563 0)
(0.134993 -0.00121388 0)
(0.136112 -0.00123109 0)
(0.137225 -0.00124718 0)
(0.138329 -0.00126204 0)
(0.139423 -0.00127557 0)
(0.140508 -0.00128761 0)
(0.14158 -0.00129805 0)
(0.14264 -0.0013067 0)
(0.143685 -0.00131338 0)
(0.144714 -0.00131788 0)
(0.145726 -0.00131996 0)
(0.146719 -0.00131935 0)
(0.147692 -0.00131572 0)
(0.148643 -0.00130872 0)
(0.149569 -0.0012979 0)
(0.15047 -0.00128278 0)
(0.151342 -0.00126276 0)
(0.152183 -0.00123715 0)
(0.15299 -0.00120514 0)
(0.15376 -0.00116572 0)
(0.15449 -0.0011177 0)
(0.155176 -0.00105962 0)
(0.155813 -0.000989698 0)
(0.156396 -0.000905713 0)
(0.156919 -0.000804885 0)
(0.157374 -0.000683693 0)
(0.157753 -0.000537625 0)
(0.158046 -0.000360824 0)
(0.158241 -0.000145589 0)
(0.158324 0.000118347 0)
(0.158275 0.000444999 0)
(0.158073 0.000853856 0)
(0.157692 0.00137242 0)
(0.157099 0.00204018 0)
(0.156255 0.00291485 0)
(0.155116 0.00408187 0)
(0.153636 0.00566863 0)
(0.151782 0.00786332 0)
(0.149561 0.0109349 0)
(0.147088 0.0152383 0)
(0.144799 0.0210895 0)
(0.14399 0.0279798 0)
(0.100031 -8.27963e-05 0)
(0.10019 -0.000157189 0)
(0.10045 -0.000225304 0)
(0.100789 -0.000288278 0)
(0.1012 -0.000347557 0)
(0.101677 -0.000403956 0)
(0.102213 -0.000458002 0)
(0.102803 -0.00051011 0)
(0.103442 -0.000560594 0)
(0.104127 -0.000609696 0)
(0.104854 -0.000657611 0)
(0.10562 -0.000704493 0)
(0.106422 -0.000750471 0)
(0.107258 -0.000795644 0)
(0.108124 -0.000840097 0)
(0.109019 -0.000883893 0)
(0.10994 -0.000927087 0)
(0.110886 -0.000969719 0)
(0.111854 -0.00101182 0)
(0.112843 -0.00105341 0)
(0.113851 -0.00109449 0)
(0.114877 -0.00113509 0)
(0.115919 -0.0011752 0)
(0.116976 -0.0012148 0)
(0.118045 -0.00125389 0)
(0.119127 -0.00129245 0)
(0.120219 -0.00133046 0)
(0.121319 -0.00136789 0)
(0.122428 -0.0014047 0)
(0.123544 -0.00144086 0)
(0.124664 -0.00147633 0)
(0.125789 -0.00151105 0)
(0.126917 -0.00154498 0)
(0.128047 -0.00157805 0)
(0.129178 -0.00161019 0)
(0.130308 -0.00164134 0)
(0.131437 -0.00167141 0)
(0.132564 -0.00170032 0)
(0.133686 -0.00172796 0)
(0.134804 -0.00175423 0)
(0.135916 -0.001779 0)
(0.137021 -0.00180215 0)
(0.138117 -0.00182352 0)
(0.139204 -0.00184294 0)
(0.140281 -0.00186024 0)
(0.141345 -0.00187519 0)
(0.142397 -0.00188758 0)
(0.143434 -0.00189712 0)
(0.144455 -0.00190351 0)
(0.145459 -0.00190643 0)
(0.146444 -0.00190546 0)
(0.147409 -0.00190016 0)
(0.148352 -0.00189001 0)
(0.149271 -0.0018744 0)
(0.150165 -0.00185263 0)
(0.15103 -0.00182386 0)
(0.151864 -0.00178714 0)
(0.152666 -0.00174129 0)
(0.153432 -0.00168494 0)
(0.154158 -0.00161643 0)
(0.154842 -0.00153374 0)
(0.155479 -0.00143442 0)
(0.156064 -0.00131545 0)
(0.156592 -0.00117305 0)
(0.157057 -0.00100252 0)
(0.157453 -0.000797877 0)
(0.15777 -0.000551452 0)
(0.157999 -0.000253334 0)
(0.158129 0.000109414 0)
(0.158149 0.000553889 0)
(0.158043 0.00110319 0)
(0.157798 0.00178864 0)
(0.157399 0.00265311 0)
(0.156833 0.00375543 0)
(0.156097 0.0051762 0)
(0.155203 0.00702407 0)
(0.154202 0.00943944 0)
(0.153207 0.012586 0)
(0.152444 0.0166068 0)
(0.152308 0.021471 0)
(0.153369 0.0265307 0)
(0.100028 -0.000108194 0)
(0.100184 -0.00020765 0)
(0.100439 -0.00029826 0)
(0.100773 -0.000382123 0)
(0.10118 -0.000461039 0)
(0.101653 -0.000536092 0)
(0.102184 -0.000607998 0)
(0.102769 -0.000677311 0)
(0.103404 -0.000744452 0)
(0.104084 -0.000809745 0)
(0.104807 -0.00087345 0)
(0.105568 -0.000935774 0)
(0.106365 -0.000996885 0)
(0.107195 -0.00105692 0)
(0.108056 -0.00111599 0)
(0.108945 -0.00117418 0)
(0.10986 -0.00123156 0)
(0.1108 -0.00128819 0)
(0.111763 -0.0013441 0)
(0.112746 -0.00139932 0)
(0.113748 -0.00145388 0)
(0.114767 -0.00150777 0)
(0.115803 -0.001561 0)
(0.116852 -0.00161356 0)
(0.117915 -0.00166542 0)
(0.118989 -0.00171658 0)
(0.120074 -0.00176699 0)
(0.121167 -0.00181662 0)
(0.122268 -0.00186542 0)
(0.123376 -0.00191335 0)
(0.124489 -0.00196035 0)
(0.125606 -0.00200635 0)
(0.126725 -0.00205128 0)
(0.127847 -0.00209506 0)
(0.128969 -0.00213761 0)
(0.13009 -0.00217882 0)
(0.13121 -0.00221859 0)
(0.132327 -0.00225681 0)
(0.13344 -0.00229333 0)
(0.134548 -0.00232802 0)
(0.13565 -0.00236072 0)
(0.136745 -0.00239125 0)
(0.137832 -0.00241942 0)
(0.138909 -0.002445 0)
(0.139975 -0.00246774 0)
(0.141029 -0.00248739 0)
(0.14207 -0.00250362 0)
(0.143097 -0.00251609 0)
(0.144107 -0.0025244 0)
(0.145101 -0.00252811 0)
(0.146076 -0.00252671 0)
(0.147031 -0.0025196 0)
(0.147964 -0.00250612 0)
(0.148873 -0.00248548 0)
(0.149757 -0.00245678 0)
(0.150614 -0.00241895 0)
(0.151441 -0.00237077 0)
(0.152236 -0.00231075 0)
(0.152996 -0.00223716 0)
(0.153719 -0.00214791 0)
(0.154401 -0.0020405 0)
(0.155038 -0.0019119 0)
(0.155628 -0.0017584 0)
(0.156165 -0.00157546 0)
(0.156646 -0.00135744 0)
(0.157063 -0.0010973 0)
(0.157413 -0.000786209 0)
(0.157687 -0.000412951 0)
(0.157881 3.67335e-05 0)
(0.157987 0.000580877 0)
(0.158 0.00124297 0)
(0.157916 0.00205342 0)
(0.157737 0.00305133 0)
(0.15747 0.00428661 0)
(0.157138 0.00582147 0)
(0.156785 0.00773011 0)
(0.156491 0.0100931 0)
(0.156388 0.0129787 0)
(0.156672 0.0163979 0)
(0.157597 0.0202058 0)
(0.159393 0.0239292 0)
(0.100025 -0.000134341 0)
(0.100177 -0.000260457 0)
(0.100427 -0.000375003 0)
(0.100756 -0.00048117 0)
(0.101157 -0.000581063 0)
(0.101624 -0.000676038 0)
(0.102149 -0.000767008 0)
(0.102729 -0.000854678 0)
(0.103358 -0.000939582 0)
(0.104032 -0.00102213 0)
(0.104748 -0.00110266 0)
(0.105503 -0.00118143 0)
(0.106293 -0.00125865 0)
(0.107116 -0.0013345 0)
(0.10797 -0.00140912 0)
(0.108853 -0.00148261 0)
(0.109761 -0.00155508 0)
(0.110693 -0.00162657 0)
(0.111648 -0.00169715 0)
(0.112623 -0.00176685 0)
(0.113618 -0.00183569 0)
(0.114629 -0.00190368 0)
(0.115656 -0.00197082 0)
(0.116697 -0.0020371 0)
(0.117751 -0.00210249 0)
(0.118816 -0.00216697 0)
(0.119891 -0.0022305 0)
(0.120975 -0.00229303 0)
(0.122066 -0.0023545 0)
(0.123164 -0.00241485 0)
(0.124267 -0.00247401 0)
(0.125373 -0.0025319 0)
(0.126482 -0.00258842 0)
(0.127593 -0.00264347 0)
(0.128704 -0.00269695 0)
(0.129814 -0.00274873 0)
(0.130923 -0.00279867 0)
(0.132028 -0.00284663 0)
(0.133129 -0.00289245 0)
(0.134226 -0.00293594 0)
(0.135316 -0.00297691 0)
(0.136398 -0.00301513 0)
(0.137472 -0.00305035 0)
(0.138536 -0.00308231 0)
(0.13959 -0.00311069 0)
(0.140631 -0.00313517 0)
(0.14166 -0.00315535 0)
(0.142673 -0.0031708 0)
(0.143671 -0.00318105 0)
(0.144652 -0.00318553 0)
(0.145615 -0.00318362 0)
(0.146558 -0.0031746 0)
(0.147479 -0.00315766 0)
(0.148377 -0.00313184 0)
(0.14925 -0.00309605 0)
(0.150097 -0.00304903 0)
(0.150915 -0.00298929 0)
(0.151703 -0.00291508 0)
(0.152457 -0.00282435 0)
(0.153176 -0.00271468 0)
(0.153858 -0.00258316 0)
(0.154498 -0.00242633 0)
(0.155095 -0.00223999 0)
(0.155645 -0.00201908 0)
(0.156145 -0.00175743 0)
(0.156592 -0.0014475 0)
(0.156982 -0.00107999 0)
(0.157312 -0.000643474 0)
(0.157581 -0.000123858 0)
(0.157786 0.000496003 0)
(0.157931 0.00123708 0)
(0.158019 0.00212517 0)
(0.158063 0.00319124 0)
(0.158083 0.00447136 0)
(0.158113 0.00600558 0)
(0.158206 0.00783442 0)
(0.15844 0.00999081 0)
(0.158923 0.0124841 0)
(0.159788 0.0152712 0)
(0.161176 0.0182105 0)
(0.163166 0.021009 0)
(0.100021 -0.000161251 0)
(0.100171 -0.000315544 0)
(0.100414 -0.000455486 0)
(0.100737 -0.000585395 0)
(0.101132 -0.000707655 0)
(0.101591 -0.000823873 0)
(0.10211 -0.000935167 0)
(0.102682 -0.0010424 0)
(0.103304 -0.00114623 0)
(0.103971 -0.00124715 0)
(0.104679 -0.00134558 0)
(0.105426 -0.00144184 0)
(0.106208 -0.0015362 0)
(0.107023 -0.00162885 0)
(0.107869 -0.00171998 0)
(0.108742 -0.00180972 0)
(0.109642 -0.00189818 0)
(0.110565 -0.00198544 0)
(0.111511 -0.00207157 0)
(0.112476 -0.0021566 0)
(0.11346 -0.00224057 0)
(0.114462 -0.00232348 0)
(0.115478 -0.00240533 0)
(0.116509 -0.00248612 0)
(0.117552 -0.0025658 0)
(0.118606 -0.00264435 0)
(0.11967 -0.00272171 0)
(0.120743 -0.00279783 0)
(0.121822 -0.00287265 0)
(0.122908 -0.00294607 0)
(0.123998 -0.00301802 0)
(0.125092 -0.00308839 0)
(0.126188 -0.00315707 0)
(0.127286 -0.00322394 0)
(0.128384 -0.00328886 0)
(0.129481 -0.00335169 0)
(0.130575 -0.00341227 0)
(0.131667 -0.0034704 0)
(0.132754 -0.0035259 0)
(0.133836 -0.00357855 0)
(0.134911 -0.00362809 0)
(0.135979 -0.00367428 0)
(0.137038 -0.00371681 0)
(0.138088 -0.00375535 0)
(0.139126 -0.00378954 0)
(0.140153 -0.00381897 0)
(0.141166 -0.0038432 0)
(0.142165 -0.00386169 0)
(0.143148 -0.00387389 0)
(0.144115 -0.00387914 0)
(0.145063 -0.00387671 0)
(0.145991 -0.00386575 0)
(0.146899 -0.00384532 0)
(0.147785 -0.00381432 0)
(0.148646 -0.00377148 0)
(0.149482 -0.00371537 0)
(0.150291 -0.00364428 0)
(0.151071 -0.00355628 0)
(0.15182 -0.00344906 0)
(0.152537 -0.00331995 0)
(0.153219 -0.00316579 0)
(0.153864 -0.00298285 0)
(0.154471 -0.00276671 0)
(0.155038 -0.0025121 0)
(0.155562 -0.00221275 0)
(0.156044 -0.00186118 0)
(0.15648 -0.00144843 0)
(0.156873 -0.000963852 0)
(0.157223 -0.000394795 0)
(0.157535 0.000273599 0)
(0.157813 0.00105785 0)
(0.158069 0.00197727 0)
(0.158321 0.00305306 0)
(0.158593 0.00430722 0)
(0.15892 0.00576032 0)
(0.15935 0.0074276 0)
(0.159945 0.0093124 0)
(0.16078 0.0113961 0)
(0.161934 0.0136238 0)
(0.163475 0.015888 0)
(0.16542 0.0180184 0)
(0.100018 -0.000188954 0)
(0.100164 -0.000372871 0)
(0.100402 -0.000539669 0)
(0.100717 -0.000694766 0)
(0.101104 -0.000840816 0)
(0.101556 -0.00097964 0)
(0.102067 -0.00111257 0)
(0.102631 -0.00124061 0)
(0.103243 -0.00136457 0)
(0.103901 -0.00148503 0)
(0.1046 -0.00160249 0)
(0.105338 -0.00171733 0)
(0.106111 -0.00182986 0)
(0.106916 -0.00194035 0)
(0.107751 -0.00204899 0)
(0.108615 -0.00215595 0)
(0.109503 -0.00226135 0)
(0.110416 -0.00236531 0)
(0.11135 -0.00246788 0)
(0.112305 -0.00256913 0)
(0.113277 -0.00266908 0)
(0.114267 -0.00276774 0)
(0.115271 -0.00286512 0)
(0.116289 -0.0029612 0)
(0.117319 -0.00305594 0)
(0.11836 -0.0031493 0)
(0.119411 -0.00324122 0)
(0.12047 -0.00333163 0)
(0.121536 -0.00342045 0)
(0.122607 -0.00350759 0)
(0.123683 -0.00359294 0)
(0.124762 -0.00367638 0)
(0.125844 -0.00375779 0)
(0.126926 -0.003837 0)
(0.128008 -0.00391388 0)
(0.129089 -0.00398823 0)
(0.130168 -0.00405986 0)
(0.131244 -0.00412857 0)
(0.132314 -0.00419412 0)
(0.13338 -0.00425625 0)
(0.134438 -0.00431467 0)
(0.135489 -0.00436909 0)
(0.136531 -0.00441914 0)
(0.137564 -0.00446446 0)
(0.138585 -0.00450462 0)
(0.139595 -0.00453914 0)
(0.140591 -0.0045675 0)
(0.141573 -0.00458912 0)
(0.142539 -0.00460334 0)
(0.143489 -0.00460942 0)
(0.144422 -0.00460652 0)
(0.145335 -0.0045937 0)
(0.146228 -0.0045699 0)
(0.1471 -0.00453389 0)
(0.147949 -0.00448429 0)
(0.148773 -0.00441951 0)
(0.149573 -0.00433771 0)
(0.150345 -0.00423681 0)
(0.15109 -0.00411437 0)
(0.151805 -0.00396758 0)
(0.152489 -0.0037932 0)
(0.153141 -0.00358742 0)
(0.153761 -0.00334587 0)
(0.154347 -0.00306342 0)
(0.1549 -0.00273412 0)
(0.155419 -0.0023511 0)
(0.155907 -0.0019064 0)
(0.156365 -0.00139094 0)
(0.156798 -0.000794421 0)
(0.157213 -0.000105325 0)
(0.157618 0.000688465 0)
(0.158027 0.00159893 0)
(0.158458 0.00263827 0)
(0.158934 0.00381688 0)
(0.159487 0.00514129 0)
(0.160153 0.00661114 0)
(0.160976 0.00821514 0)
(0.162001 0.00992596 0)
(0.163271 0.0116949 0)
(0.164814 0.0134481 0)
(0.166626 0.015089 0)
(0.100015 -0.00021749 0)
(0.100157 -0.000432414 0)
(0.100389 -0.000627526 0)
(0.100697 -0.000809256 0)
(0.101076 -0.000980532 0)
(0.101518 -0.00114336 0)
(0.10202 -0.00129926 0)
(0.102574 -0.00144941 0)
(0.103177 -0.00159474 0)
(0.103824 -0.00173594 0)
(0.104513 -0.00187358 0)
(0.10524 -0.00200812 0)
(0.106001 -0.00213993 0)
(0.106795 -0.0022693 0)
(0.107619 -0.00239648 0)
(0.10847 -0.00252165 0)
(0.109347 -0.00264498 0)
(0.110247 -0.00276657 0)
(0.111168 -0.00288651 0)
(0.112109 -0.00300486 0)
(0.113068 -0.00312166 0)
(0.114044 -0.00323693 0)
(0.115034 -0.00335065 0)
(0.116038 -0.00346281 0)
(0.117053 -0.00357338 0)
(0.118079 -0.00368229 0)
(0.119115 -0.00378949 0)
(0.120158 -0.00389488 0)
(0.121208 -0.00399837 0)
(0.122263 -0.00409986 0)
(0.123322 -0.00419922 0)
(0.124385 -0.00429631 0)
(0.125449 -0.00439098 0)
(0.126514 -0.00448306 0)
(0.127578 -0.00457236 0)
(0.128642 -0.00465867 0)
(0.129702 -0.00474178 0)
(0.130759 -0.00482144 0)
(0.131811 -0.00489738 0)
(0.132858 -0.00496931 0)
(0.133898 -0.00503689 0)
(0.13493 -0.00509978 0)
(0.135953 -0.00515758 0)
(0.136966 -0.00520986 0)
(0.137968 -0.00525614 0)
(0.138959 -0.0052959 0)
(0.139936 -0.00532853 0)
(0.140899 -0.00535339 0)
(0.141848 -0.00536976 0)
(0.14278 -0.0053768 0)
(0.143695 -0.00537362 0)
(0.144591 -0.00535917 0)
(0.145469 -0.00533231 0)
(0.146326 -0.00529173 0)
(0.147162 -0.00523595 0)
(0.147975 -0.0051633 0)
(0.148765 -0.00507189 0)
(0.14953 -0.00495955 0)
(0.15027 -0.00482384 0)
(0.150985 -0.00466194 0)
(0.151673 -0.00447068 0)
(0.152334 -0.00424644 0)
(0.152968 -0.0039851 0)
(0.153576 -0.00368199 0)
(0.154159 -0.00333188 0)
(0.154719 -0.0029289 0)
(0.155257 -0.00246658 0)
(0.15578 -0.00193785 0)
(0.156291 -0.00133519 0)
(0.156801 -0.000650744 0)
(0.157318 0.000123472 0)
(0.157855 0.000993561 0)
(0.15843 0.00196415 0)
(0.159062 0.00303759 0)
(0.159773 0.00421186 0)
(0.160592 0.00547886 0)
(0.161543 0.00682232 0)
(0.162654 0.00821592 0)
(0.163945 0.00962205 0)
(0.165423 0.0109924 0)
(0.167079 0.0122724 0)
(0.100011 -0.000246907 0)
(0.100151 -0.000494163 0)
(0.100376 -0.000719038 0)
(0.100676 -0.000928837 0)
(0.101046 -0.00112678 0)
(0.101479 -0.00131502 0)
(0.10197 -0.00149526 0)
(0.102513 -0.00166884 0)
(0.103105 -0.00183681 0)
(0.103741 -0.00199998 0)
(0.104418 -0.002159 0)
(0.105132 -0.0023144 0)
(0.105881 -0.00246659 0)
(0.106662 -0.00261593 0)
(0.107472 -0.00276269 0)
(0.10831 -0.0029071 0)
(0.109172 -0.00304933 0)
(0.110058 -0.00318952 0)
(0.110965 -0.00332776 0)
(0.111891 -0.00346412 0)
(0.112835 -0.00359865 0)
(0.113794 -0.00373137 0)
(0.114769 -0.00386226 0)
(0.115756 -0.00399131 0)
(0.116755 -0.00411846 0)
(0.117764 -0.00424367 0)
(0.118782 -0.00436685 0)
(0.119807 -0.0044879 0)
(0.120839 -0.00460672 0)
(0.121876 -0.00472318 0)
(0.122916 -0.00483713 0)
(0.12396 -0.00494843 0)
(0.125005 -0.00505689 0)
(0.12605 -0.00516231 0)
(0.127095 -0.0052645 0)
(0.128138 -0.0053632 0)
(0.129178 -0.00545818 0)
(0.130215 -0.00554915 0)
(0.131246 -0.00563581 0)
(0.132272 -0.00571782 0)
(0.133291 -0.00579483 0)
(0.134302 -0.00586643 0)
(0.135304 -0.00593219 0)
(0.136296 -0.00599163 0)
(0.137278 -0.00604422 0)
(0.138247 -0.00608938 0)
(0.139204 -0.00612646 0)
(0.140147 -0.00615475 0)
(0.141076 -0.00617348 0)
(0.141989 -0.00618175 0)
(0.142885 -0.0061786 0)
(0.143765 -0.00616295 0)
(0.144625 -0.00613358 0)
(0.145467 -0.00608915 0)
(0.146289 -0.00602814 0)
(0.147091 -0.00594887 0)
(0.147872 -0.00584943 0)
(0.14863 -0.00572772 0)
(0.149367 -0.00558136 0)
(0.150082 -0.00540769 0)
(0.150774 -0.00520378 0)
(0.151445 -0.00496635 0)
(0.152095 -0.00469179 0)
(0.152726 -0.00437613 0)
(0.153339 -0.00401509 0)
(0.153937 -0.00360408 0)
(0.154524 -0.00313829 0)
(0.155105 -0.00261284 0)
(0.155687 -0.00202294 0)
(0.156277 -0.00136412 0)
(0.156885 -0.000632539 0)
(0.157524 0.000174926 0)
(0.158206 0.00105766 0)
(0.158947 0.00201243 0)
(0.159761 0.00303317 0)
(0.160667 0.0041092 0)
(0.16168 0.00522446 0)
(0.162812 0.00635724 0)
(0.164072 0.00748051 0)
(0.16546 0.00856337 0)
(0.166965 0.00957453 0)
(0.100008 -0.000277247 0)
(0.100145 -0.000558118 0)
(0.100363 -0.000814188 0)
(0.100655 -0.00105348 0)
(0.101015 -0.00127952 0)
(0.101438 -0.00149459 0)
(0.101917 -0.00170055 0)
(0.102449 -0.0018989 0)
(0.103029 -0.00209081 0)
(0.103652 -0.0022772 0)
(0.104315 -0.00245881 0)
(0.105016 -0.00263623 0)
(0.105751 -0.00280995 0)
(0.106517 -0.00298036 0)
(0.107313 -0.00314777 0)
(0.108135 -0.00331245 0)
(0.108981 -0.00347458 0)
(0.109851 -0.00363434 0)
(0.110741 -0.00379181 0)
(0.11165 -0.0039471 0)
(0.112577 -0.00410024 0)
(0.113519 -0.00425125 0)
(0.114475 -0.00440013 0)
(0.115444 -0.00454685 0)
(0.116424 -0.00469136 0)
(0.117414 -0.00483359 0)
(0.118413 -0.00497345 0)
(0.119418 -0.00511083 0)
(0.12043 -0.00524561 0)
(0.121446 -0.00537764 0)
(0.122466 -0.00550676 0)
(0.123489 -0.0056328 0)
(0.124512 -0.00575555 0)
(0.125536 -0.00587479 0)
(0.126559 -0.0059903 0)
(0.12758 -0.0061018 0)
(0.128598 -0.00620901 0)
(0.129612 -0.00631164 0)
(0.130621 -0.00640933 0)
(0.131624 -0.00650172 0)
(0.13262 -0.00658841 0)
(0.133608 -0.00666896 0)
(0.134587 -0.00674291 0)
(0.135557 -0.00680972 0)
(0.136516 -0.00686883 0)
(0.137463 -0.00691961 0)
(0.138398 -0.00696139 0)
(0.139319 -0.0069934 0)
(0.140227 -0.00701481 0)
(0.14112 -0.00702473 0)
(0.141997 -0.00702213 0)
(0.142858 -0.00700592 0)
(0.143701 -0.00697488 0)
(0.144528 -0.00692764 0)
(0.145336 -0.00686273 0)
(0.146126 -0.00677851 0)
(0.146897 -0.00667315 0)
(0.14765 -0.00654468 0)
(0.148383 -0.00639093 0)
(0.149099 -0.00620951 0)
(0.149796 -0.00599784 0)
(0.150477 -0.00575316 0)
(0.151142 -0.0054725 0)
(0.151794 -0.00515276 0)
(0.152435 -0.00479071 0)
(0.153068 -0.00438313 0)
(0.153698 -0.00392686 0)
(0.15433 -0.00341902 0)
(0.154969 -0.00285717 0)
(0.155624 -0.00223956 0)
(0.156301 -0.00156543 0)
(0.157012 -0.000835209 0)
(0.157767 -5.03329e-05 0)
(0.158576 0.000784316 0)
(0.159449 0.00165932 0)
(0.160396 0.00256436 0)
(0.161424 0.00348589 0)
(0.16254 0.00440756 0)
(0.163745 0.00531065 0)
(0.165036 0.00617555 0)
(0.166403 0.00698405 0)
(0.100004 -0.000308549 0)
(0.100138 -0.000624276 0)
(0.10035 -0.000912954 0)
(0.100633 -0.00118315 0)
(0.100983 -0.0014387 0)
(0.101395 -0.00168201 0)
(0.101863 -0.00191507 0)
(0.102382 -0.00213954 0)
(0.102948 -0.00235669 0)
(0.103557 -0.00256757 0)
(0.104206 -0.00277298 0)
(0.104892 -0.00297362 0)
(0.105611 -0.00317 0)
(0.106361 -0.00336259 0)
(0.10714 -0.00355173 0)
(0.107945 -0.00373771 0)
(0.108774 -0.00392076 0)
(0.109626 -0.00410105 0)
(0.110498 -0.00427871 0)
(0.111388 -0.00445383 0)
(0.112296 -0.00462645 0)
(0.113218 -0.00479661 0)
(0.114155 -0.00496429 0)
(0.115103 -0.00512946 0)
(0.116063 -0.00529207 0)
(0.117032 -0.00545203 0)
(0.118009 -0.00560925 0)
(0.118992 -0.00576361 0)
(0.119982 -0.00591496 0)
(0.120976 -0.00606314 0)
(0.121973 -0.00620798 0)
(0.122972 -0.00634927 0)
(0.123973 -0.00648679 0)
(0.124973 -0.0066203 0)
(0.125972 -0.00674954 0)
(0.126969 -0.00687422 0)
(0.127962 -0.00699403 0)
(0.128952 -0.00710863 0)
(0.129936 -0.00721765 0)
(0.130915 -0.0073207 0)
(0.131886 -0.00741733 0)
(0.13285 -0.0075071 0)
(0.133804 -0.00758947 0)
(0.13475 -0.00766391 0)
(0.135684 -0.00772981 0)
(0.136608 -0.00778652 0)
(0.137519 -0.00783332 0)
(0.138418 -0.00786944 0)
(0.139304 -0.00789403 0)
(0.140175 -0.00790617 0)
(0.141032 -0.00790486 0)
(0.141874 -0.00788899 0)
(0.1427 -0.00785739 0)
(0.143511 -0.00780874 0)
(0.144305 -0.00774164 0)
(0.145083 -0.00765456 0)
(0.145845 -0.00754586 0)
(0.146591 -0.00741375 0)
(0.147321 -0.00725636 0)
(0.148037 -0.00707167 0)
(0.148739 -0.00685757 0)
(0.149428 -0.00661187 0)
(0.150107 -0.00633236 0)
(0.150778 -0.0060168 0)
(0.151443 -0.00566306 0)
(0.152106 -0.00526916 0)
(0.152771 -0.00483343 0)
(0.153442 -0.00435461 0)
(0.154125 -0.00383208 0)
(0.154827 -0.00326599 0)
(0.155553 -0.00265753 0)
(0.15631 -0.0020091 0)
(0.157106 -0.00132439 0)
(0.157949 -0.000608254 0)
(0.158845 0.000133575 0)
(0.159799 0.000891206 0)
(0.160814 0.00165186 0)
(0.161892 0.00240384 0)
(0.163031 0.0031346 0)
(0.164227 0.00383183 0)
(0.165472 0.00448497 0)
(0.0999994 -0.00034084 0)
(0.100131 -0.00069263 0)
(0.100338 -0.0010153 0)
(0.100611 -0.00131778 0)
(0.100951 -0.00160424 0)
(0.101351 -0.00187719 0)
(0.101806 -0.00213872 0)
(0.102312 -0.00239063 0)
(0.102863 -0.00263433 0)
(0.103457 -0.00287096 0)
(0.10409 -0.00310141 0)
(0.104759 -0.00332644 0)
(0.105462 -0.00354664 0)
(0.106194 -0.00376251 0)
(0.106955 -0.00397445 0)
(0.107742 -0.00418278 0)
(0.108552 -0.00438775 0)
(0.109384 -0.00458954 0)
(0.110236 -0.00478831 0)
(0.111106 -0.00498415 0)
(0.111992 -0.00517713 0)
(0.112893 -0.00536726 0)
(0.113808 -0.00555453 0)
(0.114734 -0.00573892 0)
(0.115671 -0.00592036 0)
(0.116617 -0.00609875 0)
(0.11757 -0.00627399 0)
(0.11853 -0.00644595 0)
(0.119496 -0.00661446 0)
(0.120465 -0.00677935 0)
(0.121437 -0.00694042 0)
(0.122412 -0.00709744 0)
(0.123386 -0.00725019 0)
(0.124361 -0.00739839 0)
(0.125334 -0.00754176 0)
(0.126305 -0.00767998 0)
(0.127273 -0.00781272 0)
(0.128236 -0.00793961 0)
(0.129194 -0.00806026 0)
(0.130146 -0.00817425 0)
(0.131091 -0.00828111 0)
(0.132028 -0.00838036 0)
(0.132957 -0.00847145 0)
(0.133876 -0.00855382 0)
(0.134786 -0.00862685 0)
(0.135684 -0.00868986 0)
(0.136571 -0.00874214 0)
(0.137446 -0.0087829 0)
(0.138309 -0.00881131 0)
(0.139158 -0.00882647 0)
(0.139994 -0.00882739 0)
(0.140816 -0.00881303 0)
(0.141624 -0.00878228 0)
(0.142418 -0.00873392 0)
(0.143198 -0.0086667 0)
(0.143964 -0.00857924 0)
(0.144716 -0.00847013 0)
(0.145455 -0.00833788 0)
(0.146181 -0.00818092 0)
(0.146896 -0.0079977 0)
(0.147601 -0.0077866 0)
(0.148297 -0.00754606 0)
(0.148987 -0.00727459 0)
(0.149672 -0.00697081 0)
(0.150356 -0.00663353 0)
(0.151041 -0.00626185 0)
(0.151732 -0.00585526 0)
(0.152431 -0.00541373 0)
(0.153145 -0.00493785 0)
(0.153876 -0.00442896 0)
(0.154631 -0.00388925 0)
(0.155413 -0.00332191 0)
(0.156227 -0.00273113 0)
(0.157078 -0.00212217 0)
(0.15797 -0.0015012 0)
(0.158906 -0.000874916 0)
(0.159887 -0.000249517 0)
(0.160913 0.000365951 0)
(0.161981 0.000962426 0)
(0.163087 0.00153042 0)
(0.164225 0.00206356 0)
(0.0999948 -0.000374131 0)
(0.100125 -0.000763159 0)
(0.100325 -0.00112116 0)
(0.100589 -0.00145729 0)
(0.100918 -0.00177603 0)
(0.101306 -0.00207997 0)
(0.101747 -0.00237133 0)
(0.102238 -0.002652 0)
(0.102775 -0.00292354 0)
(0.103352 -0.00318716 0)
(0.103968 -0.00344386 0)
(0.10462 -0.00369446 0)
(0.105304 -0.00393961 0)
(0.106017 -0.00417987 0)
(0.106758 -0.00441567 0)
(0.107525 -0.00464737 0)
(0.108314 -0.00487523 0)
(0.109125 -0.00509949 0)
(0.109955 -0.00532028 0)
(0.110803 -0.00553773 0)
(0.111666 -0.00575189 0)
(0.112544 -0.0059628 0)
(0.113435 -0.00617045 0)
(0.114337 -0.00637478 0)
(0.115249 -0.00657575 0)
(0.11617 -0.00677323 0)
(0.117098 -0.00696712 0)
(0.118032 -0.00715727 0)
(0.118971 -0.0073435 0)
(0.119914 -0.00752562 0)
(0.12086 -0.00770341 0)
(0.121807 -0.00787664 0)
(0.122755 -0.00804504 0)
(0.123702 -0.00820833 0)
(0.124647 -0.00836619 0)
(0.12559 -0.0085183 0)
(0.126529 -0.00866429 0)
(0.127465 -0.00880379 0)
(0.128395 -0.00893637 0)
(0.129318 -0.00906159 0)
(0.130236 -0.00917897 0)
(0.131145 -0.00928801 0)
(0.132046 -0.00938816 0)
(0.132938 -0.00947883 0)
(0.133821 -0.00955941 0)
(0.134693 -0.00962922 0)
(0.135554 -0.00968755 0)
(0.136404 -0.00973364 0)
(0.137243 -0.00976669 0)
(0.138069 -0.00978584 0)
(0.138884 -0.00979018 0)
(0.139685 -0.00977874 0)
(0.140475 -0.00975053 0)
(0.141252 -0.00970447 0)
(0.142016 -0.00963947 0)
(0.142769 -0.00955439 0)
(0.143511 -0.00944807 0)
(0.144242 -0.00931933 0)
(0.144963 -0.00916701 0)
(0.145675 -0.00898997 0)
(0.146381 -0.00878712 0)
(0.14708 -0.0085575 0)
(0.147777 -0.00830025 0)
(0.148471 -0.00801474 0)
(0.149167 -0.00770056 0)
(0.149867 -0.00735765 0)
(0.150573 -0.00698631 0)
(0.15129 -0.00658733 0)
(0.152019 -0.00616203 0)
(0.152765 -0.00571232 0)
(0.153532 -0.00524079 0)
(0.154321 -0.00475069 0)
(0.155136 -0.00424596 0)
(0.155979 -0.00373118 0)
(0.156852 -0.00321152 0)
(0.157755 -0.00269261 0)
(0.158689 -0.00218027 0)
(0.159653 -0.00168019 0)
(0.160645 -0.00119761 0)
(0.161663 -0.000736192 0)
(0.162701 -0.000299955 0)
(0.0999899 -0.00040842 0)
(0.100118 -0.000835821 0)
(0.100312 -0.00123044 0)
(0.100567 -0.00160154 0)
(0.100884 -0.00195387 0)
(0.101259 -0.00229014 0)
(0.101687 -0.00261263 0)
(0.102162 -0.00292337 0)
(0.102682 -0.00322399 0)
(0.103243 -0.00351584 0)
(0.10384 -0.00379997 0)
(0.104473 -0.00407729 0)
(0.105137 -0.00434851 0)
(0.10583 -0.00461422 0)
(0.10655 -0.00487492 0)
(0.107294 -0.00513098 0)
(0.108061 -0.00538271 0)
(0.108849 -0.00563034 0)
(0.109655 -0.00587405 0)
(0.110479 -0.00611395 0)
(0.111318 -0.00635012 0)
(0.11217 -0.00658258 0)
(0.113035 -0.00681133 0)
(0.113911 -0.00703631 0)
(0.114797 -0.00725747 0)
(0.115691 -0.00747467 0)
(0.116592 -0.0076878 0)
(0.117498 -0.0078967 0)
(0.118409 -0.00810117 0)
(0.119324 -0.00830101 0)
(0.12024 -0.00849598 0)
(0.121158 -0.00868583 0)
(0.122077 -0.00887028 0)
(0.122994 -0.00904902 0)
(0.12391 -0.00922173 0)