/*--------------------------------*- C++ -*----------------------------------*\
| =========                 |                                                 |
| \\      /  F ield         | OpenFOAM: The Open Source CFD Toolbox           |
|  \\    /   O peration     | Version:  2106                                  |
|   \\  /    A nd           | Website:  www.openfoam.com                      |
|    \\/     M anipulation  |                                                 |
\*---------------------------------------------------------------------------*/
FoamFile
{
    version     2.0;
    format      ascii;
    arch        "LSB;label=32;scalar=64";
    class       surfaceScalarField;
    location    "0.79";
    object      phi;
}
// * * * * * * * * * * * * * * * * * * * * * * * * * * * * * * * * * * * * * //

dimensions      [1 0 -1 0 0 0 0];

oriented        oriented;

internalField   nonuniform List<scalar> 
23692
(
9.30863e-05
-6.71791e-09
9.30909e-05
-4.58516e-09
9.3083e-05
7.98878e-09
9.30533e-05
2.99002e-08
9.29968e-05
5.66672e-08
9.29146e-05
8.23764e-08
9.28128e-05
1.02094e-07
9.26997e-05
1.13465e-07
9.25833e-05
1.1687e-07
9.24693e-05
1.14464e-07
9.23609e-05
1.089e-07
9.22591e-05
1.02407e-07
9.21635e-05
9.63752e-08
9.20729e-05
9.14063e-08
9.19863e-05
8.75466e-08
9.19027e-05
8.45655e-08
9.18217e-05
8.21519e-08
9.17429e-05
8.00233e-08
9.16664e-05
7.79795e-08
9.1592e-05
7.58924e-08
9.152e-05
7.36965e-08
9.14504e-05
7.13624e-08
9.13835e-05
6.88827e-08
9.13194e-05
6.6264e-08
9.12581e-05
6.35143e-08
9.11999e-05
6.06428e-08
9.11449e-05
5.76585e-08
9.10931e-05
5.45706e-08
9.10447e-05
5.13861e-08
9.09997e-05
4.81163e-08
9.09582e-05
4.47716e-08
9.09204e-05
4.13635e-08
9.08861e-05
3.79105e-08
9.08555e-05
3.44325e-08
9.08285e-05
3.09516e-08
9.08052e-05
2.74963e-08
9.07854e-05
2.40994e-08
9.07691e-05
2.07952e-08
9.07561e-05
1.7624e-08
9.07463e-05
1.46304e-08
9.07394e-05
1.18593e-08
9.07351e-05
9.36254e-09
9.07331e-05
7.19524e-09
9.07331e-05
5.41394e-09
9.07345e-05
4.081e-09
9.07368e-05
3.26165e-09
9.07395e-05
3.02514e-09
9.07419e-05
3.44574e-09
9.07432e-05
4.60678e-09
9.07426e-05
6.59452e-09
9.07392e-05
9.50678e-09
9.0732e-05
1.34526e-08
9.07197e-05
1.85522e-08
9.07011e-05
2.49458e-08
9.06747e-05
3.27926e-08
9.06388e-05
4.22763e-08
9.05917e-05
5.36159e-08
9.05312e-05
6.70687e-08
9.04548e-05
8.29449e-08
9.03598e-05
1.01618e-07
9.02429e-05
1.23545e-07
9.01002e-05
1.4929e-07
8.99273e-05
1.79557e-07
8.97187e-05
2.1523e-07
8.94679e-05
2.57441e-07
8.9167e-05
3.07648e-07
8.88058e-05
3.67764e-07
8.83722e-05
4.40327e-07
8.785e-05
5.28772e-07
8.72188e-05
6.37817e-07
8.64513e-05
7.74077e-07
8.55108e-05
9.47e-07
8.4347e-05
1.17036e-06
8.28888e-05
1.46468e-06
8.10341e-05
1.86108e-06
7.86328e-05
2.40768e-06
7.54596e-05
3.17954e-06
7.11704e-05
4.29556e-06
6.5219e-05
5.95758e-06
5.6679e-05
8.54624e-06
1.30756e-05
4.36095e-05
9.96066e-05
-1.39925e-08
9.96119e-05
-9.77821e-09
9.96039e-05
1.60571e-08
9.95727e-05
6.12775e-08
9.9513e-05
1.166e-07
9.94258e-05
1.69827e-07
9.93174e-05
2.10731e-07
9.91968e-05
2.34405e-07
9.90725e-05
2.41611e-07
9.89507e-05
2.36769e-07
9.88349e-05
2.25366e-07
9.8726e-05
2.11997e-07
9.86235e-05
1.99555e-07
9.85265e-05
1.89285e-07
9.84338e-05
1.81301e-07
9.83443e-05
1.75126e-07
9.82576e-05
1.70119e-07
9.81732e-05
1.65712e-07
9.80912e-05
1.61482e-07
9.80116e-05
1.57169e-07
9.79344e-05
1.52633e-07
9.78599e-05
1.47818e-07
9.77882e-05
1.42708e-07
9.77194e-05
1.37314e-07
9.76537e-05
1.31652e-07
9.75912e-05
1.25742e-07
9.75321e-05
1.19605e-07
9.74764e-05
1.13255e-07
9.74242e-05
1.06712e-07
9.73757e-05
9.99928e-08
9.73309e-05
9.31203e-08
9.72899e-05
8.61253e-08
9.72526e-05
7.90382e-08
9.72193e-05
7.19023e-08
9.71897e-05
6.47663e-08
9.7164e-05
5.7686e-08
9.7142e-05
5.07269e-08
9.71236e-05
4.39646e-08
9.71087e-05
3.74812e-08
9.70971e-05
3.13642e-08
9.70885e-05
2.57132e-08
9.70827e-05
2.06297e-08
9.70793e-05
1.62273e-08
9.70778e-05
1.26266e-08
9.70778e-05
9.95158e-09
9.70787e-05
8.33702e-09
9.70799e-05
7.92746e-09
9.70807e-05
8.87674e-09
9.70803e-05
1.13506e-08
9.70778e-05
1.55307e-08
9.70722e-05
2.16178e-08
9.70625e-05
2.9831e-08
9.70473e-05
4.04218e-08
9.70254e-05
5.36711e-08
9.69951e-05
6.99052e-08
9.69548e-05
8.95009e-08
9.69024e-05
1.12899e-07
9.68359e-05
1.40625e-07
9.67525e-05
1.73303e-07
9.66495e-05
2.11689e-07
9.65234e-05
2.56701e-07
9.63704e-05
3.0947e-07
9.61856e-05
3.71398e-07
9.59638e-05
4.44246e-07
9.56981e-05
5.30248e-07
9.53806e-05
6.32268e-07
9.50014e-05
7.54028e-07
9.45484e-05
9.00428e-07
9.40063e-05
1.07802e-06
9.33555e-05
1.29566e-06
9.2571e-05
1.56559e-06
9.16201e-05
1.90488e-06
9.04597e-05
2.33774e-06
8.90324e-05
2.89891e-06
8.72618e-05
3.63861e-06
8.5047e-05
4.62926e-06
8.22604e-05
5.97294e-06
7.87563e-05
7.80636e-06
7.44212e-05
1.02994e-05
6.93879e-05
1.35862e-05
1.7254e-05
6.52161e-05
0.000106584
-2.1877e-08
0.00010659
-1.58117e-08
0.000106582
2.38281e-08
0.00010655
9.35465e-08
0.000106488
1.79096e-07
0.000106396
2.61646e-07
0.000106282
3.25333e-07
0.000106154
3.6248e-07
0.000106022
3.74147e-07
0.000105892
3.67095e-07
0.000105769
3.49763e-07
0.000105652
3.29258e-07
0.000105542
3.10075e-07
0.000105438
2.94183e-07
0.000105339
2.81778e-07
0.000105243
2.7216e-07
0.00010515
2.64353e-07
0.00010506
2.5748e-07
0.000104972
2.50898e-07
0.000104887
2.44203e-07
0.000104804
2.37183e-07
0.000104724
2.29741e-07
0.000104647
2.21857e-07
0.000104574
2.1354e-07
0.000104503
2.04823e-07
0.000104436
1.95731e-07
0.000104372
1.86293e-07
0.000104312
1.76539e-07
0.000104256
1.66492e-07
0.000104203
1.56185e-07
0.000104154
1.4565e-07
0.000104109
1.34932e-07
0.000104069
1.24083e-07
0.000104032
1.13168e-07
0.000103999
1.02261e-07
0.00010397
9.14514e-08
0.000103945
8.08383e-08
0.000103923
7.05387e-08
0.000103905
6.06786e-08
0.000103891
5.13952e-08
0.000103879
4.28383e-08
0.000103871
3.51689e-08
0.000103864
2.856e-08
0.00010386
2.31939e-08
0.000103857
1.92651e-08
0.000103855
1.69826e-08
0.000103852
1.65646e-08
0.00010385
1.82475e-08
0.000103846
2.22871e-08
0.000103839
2.89607e-08
0.000103829
3.85738e-08
0.000103815
5.14657e-08
0.000103794
6.80131e-08
0.000103766
8.86477e-08
0.00010373
1.13861e-07
0.000103682
1.44225e-07
0.000103622
1.80404e-07
0.000103547
2.23186e-07
0.000103455
2.73506e-07
0.000103341
3.32488e-07
0.000103204
4.01497e-07
0.000103039
4.82198e-07
0.000102841
5.76649e-07
0.000102606
6.87409e-07
0.000102326
8.17698e-07
0.000101994
9.71602e-07
0.000101602
1.15437e-06
0.000101137
1.3728e-06
0.000100586
1.63582e-06
9.99344e-05
1.95528e-06
9.91605e-05
2.34703e-06
9.82404e-05
2.83251e-06
9.71447e-05
3.44086e-06
9.58394e-05
4.21163e-06
9.42874e-05
5.19797e-06
9.24548e-05
6.46918e-06
9.03257e-05
8.10927e-06
8.79353e-05
1.0204e-05
8.54428e-05
1.27991e-05
8.32675e-05
1.57685e-05
1.84428e-05
8.20858e-05
0.00011405
-3.04601e-08
0.000114057
-2.29322e-08
0.00011405
3.07881e-08
0.000114018
1.25909e-07
0.000113954
2.43151e-07
0.000113859
3.56784e-07
0.00011374
4.44996e-07
0.000113606
4.97068e-07
0.000113466
5.14209e-07
0.000113328
5.05498e-07
0.000113196
4.824e-07
0.000113072
4.54661e-07
0.000112954
4.28486e-07
0.000112843
4.0665e-07
0.000112736
3.89509e-07
0.000112633
3.76147e-07
0.000112534
3.65277e-07
0.000112437
3.55711e-07
0.000112343
3.4658e-07
0.000112252
3.37328e-07
0.000112163
3.2766e-07
0.000112078
3.17442e-07
0.000111995
3.06642e-07
0.000111916
2.95273e-07
0.000111841
2.83369e-07
0.000111768
2.70971e-07
0.0001117
2.58118e-07
0.000111635
2.44844e-07
0.000111574
2.31189e-07
0.000111517
2.17192e-07
0.000111463
2.02904e-07
0.000111414
1.8838e-07
0.000111369
1.73699e-07
0.000111328
1.58943e-07
0.000111291
1.4422e-07
0.000111258
1.29648e-07
0.000111229
1.15369e-07
0.000111203
1.01536e-07
0.000111181
8.83233e-08
0.000111162
7.59214e-08
0.000111147
6.45308e-08
0.000111134
5.43744e-08
0.000111123
4.56857e-08
0.000111114
3.87148e-08
0.000111106
3.37271e-08
0.000111099
3.10029e-08
0.000111092
3.08421e-08
0.000111084
3.35661e-08
0.000111074
3.95188e-08
0.000111061
4.90776e-08
0.000111044
6.26539e-08
0.000111023
8.07018e-08
0.000110995
1.0373e-07
0.000110959
1.32315e-07
0.000110913
1.67112e-07
0.000110857
2.08878e-07
0.000110786
2.58494e-07
0.000110701
3.16993e-07
0.000110597
3.85601e-07
0.000110471
4.65779e-07
0.000110322
5.59285e-07
0.000110144
6.68257e-07
0.000109933
7.953e-07
0.000109685
9.43631e-07
0.000109394
1.11724e-06
0.000109052
1.32112e-06
0.000108653
1.56157e-06
0.000108188
1.84658e-06
0.000107645
2.18642e-06
0.000107014
2.59424e-06
0.000106282
3.08709e-06
0.000105436
3.68698e-06
0.000104462
4.42219e-06
0.000103354
5.32848e-06
0.00010211
6.44955e-06
0.000100752
7.83509e-06
9.9336e-05
9.53282e-06
9.79799e-05
1.15677e-05
9.68901e-05
1.38966e-05
9.63504e-05
1.63158e-05
1.83112e-05
9.64894e-05
0.000122038
-3.98397e-08
0.000122047
-3.14502e-08
0.000122042
3.62928e-08
0.00012201
1.57354e-07
0.000121946
3.07461e-07
0.000121849
4.5384e-07
0.000121726
5.68457e-07
0.000121587
6.37234e-07
0.00012144
6.6128e-07
0.000121294
6.51873e-07
0.000121154
6.23509e-07
0.000121021
5.88639e-07
0.000120895
5.55322e-07
0.000120775
5.2725e-07
0.000120661
5.05014e-07
0.000120551
4.87558e-07
0.000120444
4.733e-07
0.000120341
4.6076e-07
0.000120241
4.48833e-07
0.000120143
4.36817e-07
0.000120049
4.24318e-07
0.000119957
4.11168e-07
0.000119869
3.97309e-07
0.000119785
3.8276e-07
0.000119703
3.67557e-07
0.000119626
3.51749e-07
0.000119552
3.35385e-07
0.000119482
3.18513e-07
0.000119416
3.0118e-07
0.000119354
2.83438e-07
0.000119296
2.65351e-07
0.000119241
2.46998e-07
0.000119191
2.28471e-07
0.000119146
2.09885e-07
0.000119104
1.91371e-07
0.000119066
1.73086e-07
0.000119031
1.55207e-07
0.000119001
1.37935e-07
0.000118974
1.21491e-07
0.00011895
1.06113e-07
0.000118929
9.20652e-08
0.00011891
7.96253e-08
0.000118894
6.90915e-08
0.000118879
6.07818e-08
0.000118864
5.50336e-08
0.000118851
5.22018e-08
0.000118836
5.26662e-08
0.000118821
5.68312e-08
0.000118803
6.51329e-08
0.000118782
7.80448e-08
0.000118756
9.60808e-08
0.000118725
1.19809e-07
0.000118687
1.49864e-07
0.000118641
1.86957e-07
0.000118585
2.31897e-07
0.000118516
2.85611e-07
0.000118434
3.49171e-07
0.000118336
4.23831e-07
0.000118219
5.11059e-07
0.000118081
6.12597e-07
0.000117918
7.3052e-07
0.000117728
8.6732e-07
0.000117506
1.026e-06
0.000117248
1.21022e-06
0.000116949
1.42443e-06
0.000116605
1.67411e-06
0.000116209
1.966e-06
0.000115756
2.30845e-06
0.00011524
2.7118e-06
0.000114654
3.18887e-06
0.000113994
3.75548e-06
0.000113258
4.43095e-06
0.000112451
5.23841e-06
0.000111583
6.20459e-06
0.000110683
7.35821e-06
0.000109801
8.72567e-06
0.00010902
1.03216e-05
0.000108466
1.21304e-05
0.000108295
1.40754e-05
0.000108646
1.59731e-05
1.74919e-05
0.000109473
0.000130587
-5.01268e-08
0.000130597
-4.17126e-08
0.000130594
3.96005e-08
0.000130565
1.86682e-07
0.000130502
3.70449e-07
0.000130405
5.5109e-07
0.00013028
6.94115e-07
0.000130136
7.81724e-07
0.000129983
8.14588e-07
0.00012983
8.05922e-07
0.000129681
7.73169e-07
0.000129539
7.31547e-07
0.000129404
6.91071e-07
0.000129276
6.56502e-07
0.000129153
6.28794e-07
0.000129036
6.06835e-07
0.000128922
5.88795e-07
0.000128811
5.72929e-07
0.000128704
5.57911e-07
0.0001286
5.42877e-07
0.0001285
5.27346e-07
0.000128402
5.11086e-07
0.000128308
4.94027e-07
0.000128218
4.76171e-07
0.000128131
4.57566e-07
0.000128048
4.38265e-07
0.000127969
4.18325e-07
0.000127893
3.97803e-07
0.000127822
3.76759e-07
0.000127754
3.55261e-07
0.000127691
3.33386e-07
0.000127632
3.1123e-07
0.000127576
2.88912e-07
0.000127525
2.66572e-07
0.000127477
2.44371e-07
0.000127434
2.22504e-07
0.000127394
2.01186e-07
0.000127358
1.80663e-07
0.000127324
1.61204e-07
0.000127294
1.43101e-07
0.000127266
1.26672e-07
0.000127241
1.12257e-07
0.000127217
1.00221e-07
0.000127194
9.09446e-08
0.000127172
8.48362e-08
0.00012715
8.23272e-08
0.000127127
8.38739e-08
0.000127102
8.99633e-08
0.000127074
1.01119e-07
0.000127043
1.17903e-07
0.000127006
1.4093e-07
0.000126964
1.70873e-07
0.000126914
2.08476e-07
0.000126855
2.54573e-07
0.000126786
3.10107e-07
0.000126704
3.76147e-07
0.000126609
4.53922e-07
0.000126497
5.44854e-07
0.000126367
6.50596e-07
0.000126215
7.73083e-07
0.000126041
9.14597e-07
0.000125839
1.07783e-06
0.000125609
1.266e-06
0.000125345
1.48291e-06
0.000125046
1.73313e-06
0.000124707
2.02214e-06
0.000124326
2.35648e-06
0.0001239
2.74398e-06
0.000123427
3.19397e-06
0.000122907
3.71748e-06
0.000122345
4.32733e-06
0.000121747
5.03812e-06
0.000121129
5.86579e-06
0.000120516
6.82648e-06
0.000119949
7.9342e-06
0.000119487
9.19633e-06
0.000119212
1.06059e-05
0.000119221
1.21297e-05
0.000119614
1.36917e-05
0.000120439
1.51563e-05
1.63263e-05
0.000121613
0.000139734
-6.14276e-08
0.000139746
-5.4087e-08
0.000139746
3.99171e-08
0.000139721
2.12579e-07
0.000139661
4.30362e-07
0.000139566
6.46557e-07
0.00013944
8.20076e-07
0.000139294
9.29007e-07
0.000139136
9.73089e-07
0.000138975
9.67121e-07
0.000138818
9.31302e-07
0.000138667
8.83605e-07
0.000138523
8.36128e-07
0.000138386
7.94865e-07
0.000138255
7.61292e-07
0.000138129
7.34358e-07
0.000138007
7.12075e-07
0.000137889
6.92468e-07
0.000137775
6.74004e-07
0.000137665
6.55663e-07
0.000137558
6.36857e-07
0.000137454
6.17299e-07
0.000137354
5.96883e-07
0.000137258
5.75603e-07
0.000137166
5.53503e-07
0.000137077
5.30641e-07
0.000136992
5.07082e-07
0.000136911
4.82894e-07
0.000136834
4.58147e-07
0.000136761
4.32924e-07
0.000136692
4.0732e-07
0.000136627
3.81453e-07
0.000136566
3.55464e-07
0.000136509
3.2952e-07
0.000136455
3.03816e-07
0.000136405
2.78581e-07
0.000136359
2.54073e-07
0.000136316
2.30582e-07
0.000136275
2.08424e-07
0.000136238
1.87946e-07
0.000136202
1.69519e-07
0.000136169
1.53544e-07
0.000136136
1.40446e-07
0.000136105
1.30674e-07
0.000136073
1.24701e-07
0.000136041
1.2303e-07
0.000136007
1.26191e-07
0.000135971
1.34748e-07
0.000135931
1.49303e-07
0.000135888
1.70502e-07
0.000135839
1.99045e-07
0.000135783
2.35694e-07
0.00013572
2.8129e-07
0.000135647
3.36764e-07
0.000135564
4.03158e-07
0.000135468
4.81648e-07
0.000135358
5.7357e-07
0.000135232
6.8045e-07
0.000135088
8.04042e-07
0.000134925
9.4637e-07
0.00013474
1.10978e-06
0.00013453
1.297e-06
0.000134295
1.5112e-06
0.000134032
1.75609e-06
0.000133739
2.03596e-06
0.000133415
2.3558e-06
0.00013306
2.7214e-06
0.000132675
3.13936e-06
0.000132262
3.61717e-06
0.000131826
4.16314e-06
0.000131377
4.78625e-06
0.000130929
5.49569e-06
0.000130504
6.30016e-06
0.000130134
7.20645e-06
0.000129861
8.21731e-06
0.000129739
9.32797e-06
0.000129833
1.05213e-05
0.000130211
1.17613e-05
0.000130925
1.29869e-05
0.000131983
1.41078e-05
1.50117e-05
0.000133306
0.000149522
-7.38479e-08
0.000149537
-6.89204e-08
0.000149541
3.64551e-08
0.00014952
2.33728e-07
0.000149465
4.8539e-07
0.000149374
7.38158e-07
0.00014925
9.44277e-07
0.000149102
1.07731e-06
0.00014894
1.13549e-06
0.000148774
1.1347e-06
0.000148608
1.09759e-06
0.000148448
1.04484e-06
0.000148295
9.90732e-07
0.000148148
9.42671e-07
0.000148008
9.02851e-07
0.000147873
8.70442e-07
0.000147744
8.43393e-07
0.000147619
8.19567e-07
0.000147498
7.97246e-07
0.000147381
7.7526e-07
0.000147267
7.52913e-07
0.000147158
7.29845e-07
0.000147052
7.05913e-07
0.00014695
6.81093e-07
0.000146851
6.55416e-07
0.000146757
6.28947e-07
0.000146666
6.01753e-07
0.00014658
5.73914e-07
0.000146497
5.45512e-07
0.000146419
5.16644e-07
0.000146344
4.87428e-07
0.000146273
4.57999e-07
0.000146205
4.28525e-07
0.000146142
3.99199e-07
0.000146082
3.70256e-07
0.000146025
3.41956e-07
0.000145971
3.14598e-07
0.000145921
2.88515e-07
0.000145872
2.64072e-07
0.000145826
2.41665e-07
0.000145782
2.21721e-07
0.000145739
2.04694e-07
0.000145697
1.91068e-07
0.000145655
1.81353e-07
0.000145612
1.76085e-07
0.000145568
1.75831e-07
0.000145522
1.81187e-07
0.000145474
1.92784e-07
0.000145421
2.11292e-07
0.000145364
2.37426e-07
0.000145301
2.71955e-07
0.00014523
3.15712e-07
0.000145152
3.69603e-07
0.000145064
4.34626e-07
0.000144966
5.11886e-07
0.000144855
6.02612e-07
0.000144731
7.08185e-07
0.000144592
8.30157e-07
0.000144436
9.70285e-07
0.000144262
1.13056e-06
0.000144069
1.31325e-06
0.000143856
1.52092e-06
0.000143621
1.75649e-06
0.000143365
2.02326e-06
0.000143087
2.32494e-06
0.000142787
2.66568e-06
0.000142469
3.05002e-06
0.000142136
3.48293e-06
0.000141795
3.96963e-06
0.000141453
4.51541e-06
0.000141124
5.12534e-06
0.000140827
5.80369e-06
0.000140584
6.55319e-06
0.000140427
7.37384e-06
0.000140393
8.26135e-06
0.000140527
9.20506e-06
0.000140873
1.01854e-05
0.000141473
1.11713e-05
0.000142351
1.21184e-05
0.000143499
1.29702e-05
1.36641e-05
0.000144856
0.000159996
-8.74695e-08
0.000160013
-8.65163e-08
0.000160021
2.85325e-08
0.000160006
2.48946e-07
0.000159958
5.33855e-07
0.000159873
8.23884e-07
0.000159753
1.06464e-06
0.000159606
1.22475e-06
0.000159442
1.30032e-06
0.00015927
1.30764e-06
0.000159097
1.27147e-06
0.000158928
1.21504e-06
0.000158765
1.1549e-06
0.000158609
1.10007e-06
0.00015846
1.05367e-06
0.000158317
1.01528e-06
0.000158179
9.82913e-07
0.000158046
9.54347e-07
0.000157918
9.27717e-07
0.000157794
9.01718e-07
0.000157675
8.75535e-07
0.000157559
8.48736e-07
0.000157447
8.21126e-07
0.000157339
7.9265e-07
0.000157235
7.63334e-07
0.000157135
7.3323e-07
0.000157039
7.02418e-07
0.000156946
6.70979e-07
0.000156858
6.39013e-07
0.000156773
6.06635e-07
0.000156692
5.73975e-07
0.000156615
5.41198e-07
0.000156541
5.08493e-07
0.000156471
4.7609e-07
0.000156404
4.44246e-07
0.000156339
4.13265e-07
0.000156278
3.83483e-07
0.000156219
3.55274e-07
0.000156162
3.29048e-07
0.000156106
3.05248e-07
0.000156052
2.84349e-07
0.000155999
2.66859e-07
0.000155945
2.53312e-07
0.000155892
2.44272e-07
0.000155837
2.4033e-07
0.00015578
2.42106e-07
0.000155721
2.50253e-07
0.000155658
2.65454e-07
0.000155591
2.88431e-07
0.000155519
3.1995e-07
0.00015544
3.60826e-07
0.000155354
4.11933e-07
0.00015526
4.74214e-07
0.000155157
5.48691e-07
0.000155043
6.36482e-07
0.000154918
7.38814e-07
0.00015478
8.57038e-07
0.000154629
9.92648e-07
0.000154463
1.1473e-06
0.000154282
1.32284e-06
0.000154086
1.52129e-06
0.000153873
1.74489e-06
0.000153645
1.99611e-06
0.000153402
2.27764e-06
0.000153146
2.59234e-06
0.000152879
2.94328e-06
0.000152607
3.33358e-06
0.000152335
3.76638e-06
0.000152072
4.24461e-06
0.000151827
4.77078e-06
0.000151617
5.34659e-06
0.00015146
5.9725e-06
0.000151377
6.64708e-06
0.000151396
7.36626e-06
0.000151546
8.12239e-06
0.000151859
8.90322e-06
0.000152364
9.69095e-06
0.000153084
1.04615e-05
0.000154029
1.11849e-05
0.000155183
1.18268e-05
1.23527e-05
0.000156505
0.000171203
-1.02346e-07
0.000171224
-1.07069e-07
0.000171237
1.56591e-08
0.000171228
2.57322e-07
0.000171188
5.74402e-07
0.000171111
9.02018e-07
0.000170996
1.17929e-06
0.000170852
1.36951e-06
0.000170687
1.46596e-06
0.000170511
1.48471e-06
0.000170332
1.45208e-06
0.000170154
1.39367e-06
0.000169982
1.32837e-06
0.000169816
1.26697e-06
0.000169658
1.21377e-06
0.000169506
1.16892e-06
0.00016936
1.1307e-06
0.00016922
1.09686e-06
0.000169085
1.06546e-06
0.000168954
1.03505e-06
0.000168828
1.00473e-06
0.000168706
9.73979e-07
0.000168589
9.42534e-07
0.000168475
9.10309e-07
0.000168365
8.77306e-07
0.000168259
8.43575e-07
0.000168157
8.09193e-07
0.000168059
7.74252e-07
0.000167964
7.38862e-07
0.000167873
7.03155e-07
0.000167786
6.67285e-07
0.000167702
6.31438e-07
0.000167622
5.9583e-07
0.000167544
5.60717e-07
0.000167469
5.26395e-07
0.000167397
4.93197e-07
0.000167326
4.61496e-07
0.000167258
4.31705e-07
0.000167191
4.04275e-07
0.000167126
3.79691e-07
0.00016706
3.5847e-07
0.000166995
3.41163e-07
0.00016693
3.28351e-07
0.000166863
3.20638e-07
0.000166795
3.1866e-07
0.000166724
3.23078e-07
0.00016665
3.34583e-07
0.000166572
3.53896e-07
0.00016649
3.8177e-07
0.000166402
4.18998e-07
0.000166307
4.66412e-07
0.000166205
5.24895e-07
0.000166096
5.95386e-07
0.000165977
6.78887e-07
0.000165849
7.76476e-07
0.00016571
8.8931e-07
0.00016556
1.01864e-06
0.000165399
1.16582e-06
0.000165226
1.3323e-06
0.000165041
1.51966e-06
0.000164845
1.72956e-06
0.000164638
1.9638e-06
0.000164422
2.22423e-06
0.000164199
2.51279e-06
0.000163972
2.8314e-06
0.000163746
3.18194e-06
0.000163525
3.56612e-06
0.000163318
3.98536e-06
0.000163134
4.44059e-06
0.000162985
4.93205e-06
0.000162885
5.45899e-06
0.00016285
6.01933e-06
0.0001629
6.60927e-06
0.000163055
7.22288e-06
0.000163337
7.85168e-06
0.000163768
8.48429e-06
0.000164364
9.10626e-06
0.000165137
9.70023e-06
0.000166087
1.02466e-05
0.0001672
1.07249e-05
1.11164e-05
0.000168448
0.000183195
-1.18484e-07
0.000183219
-1.30646e-07
0.000183237
-2.39444e-09
0.000183236
2.58357e-07
0.000183205
6.06162e-07
0.000183136
9.71324e-07
0.000183029
1.2867e-06
0.000182889
1.50995e-06
0.000182725
1.63085e-06
0.000182546
1.66451e-06
0.000182361
1.63829e-06
0.000182176
1.57992e-06
0.000181995
1.51058e-06
0.000181821
1.44303e-06
0.000181653
1.38294e-06
0.000181493
1.33128e-06
0.000181339
1.28671e-06
0.000181191
1.2471e-06
0.000181049
1.21047e-06
0.000180912
1.17529e-06
0.000180779
1.14054e-06
0.000180651
1.10562e-06
0.000180527
1.0702e-06
0.000180407
1.03416e-06
0.000180292
9.97459e-07
0.00018018
9.60144e-07
0.000180072
9.22287e-07
0.000179968
8.83989e-07
0.000179867
8.45373e-07
0.000179769
8.06584e-07
0.000179675
7.678e-07
0.000179584
7.29226e-07
0.000179496
6.9111e-07
0.00017941
6.53735e-07
0.000179327
6.17423e-07
0.000179246
5.82542e-07
0.000179166
5.49497e-07
0.000179088
5.18736e-07
0.00017901
4.90741e-07
0.000178933
4.66034e-07
0.000178856
4.45167e-07
0.000178778
4.28724e-07
0.0001787
4.17316e-07
0.000178619
4.11581e-07
0.000178536
4.12183e-07
0.00017845
4.19807e-07
0.000178361
4.35166e-07
0.000178267
4.58993e-07
0.000178168
4.92051e-07
0.000178064
5.35127e-07
0.000177953
5.89042e-07
0.000177835
6.54651e-07
0.00017771
7.32844e-07
0.000177576
8.24557e-07
0.000177435
9.30768e-07
0.000177284
1.05251e-06
0.000177124
1.19086e-06
0.000176956
1.34694e-06
0.000176779
1.52194e-06
0.000176594
1.71707e-06
0.000176403
1.93355e-06
0.000176207
2.17263e-06
0.000176009
2.43551e-06
0.000175811
2.72331e-06
0.000175619
3.03703e-06
0.000175436
3.37741e-06
0.00017527
3.74492e-06
0.000175129
4.13955e-06
0.000175022
4.56071e-06
0.00017496
5.00705e-06
0.000174955
5.47628e-06
0.000175023
5.96496e-06
0.000175176
6.46831e-06
0.000175432
6.98007e-06
0.000175804
7.49238e-06
0.000176305
7.99577e-06
0.000176944
8.47933e-06
0.000177725
8.93105e-06
0.000178646
9.33845e-06
0.000179693
9.68957e-06
9.9742e-06
0.000180848
0.000196027
-1.35854e-07
0.000196054
-1.5718e-07
0.000196077
-2.55652e-08
0.000196084
2.52009e-07
0.000196061
6.28865e-07
0.000196002
1.03119e-06
0.000195903
1.38589e-06
0.000195769
1.64478e-06
0.000195607
1.79354e-06
0.000195427
1.8456e-06
0.000195238
1.8288e-06
0.000195046
1.77267e-06
0.000194858
1.70067e-06
0.000194675
1.62762e-06
0.000194499
1.56076e-06
0.00019433
1.50209e-06
0.000194168
1.4508e-06
0.000194013
1.405e-06
0.000193864
1.36275e-06
0.00019372
1.32246e-06
0.000193581
1.28303e-06
0.000193446
1.24377e-06
0.000193316
1.20429e-06
0.00019319
1.16439e-06
0.000193068
1.12403e-06
0.00019295
1.08323e-06
0.000192836
1.04205e-06
0.000192725
1.0006e-06
0.000192618
9.59019e-07
0.000192513
9.17462e-07
0.000192412
8.76126e-07
0.000192313
8.35243e-07
0.000192216
7.95082e-07
0.000192122
7.55954e-07
0.000192029
7.1821e-07
0.000191938
6.82241e-07
0.000191848
6.48483e-07
0.000191759
6.17409e-07
0.00019167
5.89528e-07
0.00019158
5.65387e-07
0.00019149
5.45562e-07
0.000191398
5.30657e-07
0.000191305
5.21305e-07
0.00019121
5.18157e-07
0.000191111
5.21887e-07
0.00019101
5.33188e-07
0.000190904
5.52769e-07
0.000190793
5.81354e-07
0.000190678
6.19684e-07
0.000190557
6.68515e-07
0.00019043
7.28617e-07
0.000190297
8.00778e-07
0.000190157
8.85801e-07
0.00019001
9.84503e-07
0.000189856
1.09772e-06
0.000189696
1.22629e-06
0.000189529
1.37107e-06
0.000189356
1.53291e-06
0.000189179
1.71265e-06
0.000188999
1.91108e-06
0.000188817
2.12896e-06
0.000188637
2.36696e-06
0.000188461
2.62562e-06
0.000188292
2.90532e-06
0.000188137
3.20619e-06
0.000188
3.52807e-06
0.000187889
3.87042e-06
0.00018781
4.2322e-06
0.000187772
4.61181e-06
0.000187786
5.00698e-06
0.000187861
5.41466e-06
0.000188009
5.83095e-06
0.00018824
6.25103e-06
0.000188564
6.66918e-06
0.000188991
7.07881e-06
0.000189528
7.47258e-06
0.000190178
7.84264e-06
0.000190941
8.18093e-06
0.000191813
8.47967e-06
0.000192784
8.73191e-06
8.9322e-06
0.000193839
0.000209758
-1.54377e-07
0.000209787
-1.86465e-07
0.000209815
-5.35086e-08
0.000209829
2.38692e-07
0.000209815
6.42827e-07
0.000209765
1.08164e-06
0.000209675
1.47647e-06
0.000209548
1.77318e-06
0.000209389
1.95284e-06
0.000209209
2.02658e-06
0.000209017
2.02218e-06
0.000208821
1.97064e-06
0.000208625
1.89755e-06
0.000208435
1.81989e-06
0.000208251
1.74662e-06
0.000208074
1.68093e-06
0.000207905
1.62272e-06
0.000207742
1.57045e-06
0.000207586
1.52229e-06
0.000207435
1.47665e-06
0.000207289
1.43236e-06
0.000207148
1.38865e-06
0.000207012
1.34505e-06
0.000206879
1.30135e-06
0.000206751
1.25743e-06
0.000206626
1.21329e-06
0.000206505
1.16902e-06
0.000206387
1.12469e-06
0.000206272
1.08047e-06
0.00020616
1.03653e-06
0.00020605
9.93074e-07
0.000205943
9.50365e-07
0.000205837
9.08691e-07
0.000205733
8.68383e-07
0.00020563
8.29815e-07
0.000205528
7.93402e-07
0.000205427
7.59597e-07
0.000205325
7.28892e-07
0.000205223
7.01815e-07
0.00020512
6.78924e-07
0.000205015
6.60808e-07
0.000204909
6.48077e-07
0.0002048
6.41367e-07
0.000204689
6.41326e-07
0.000204574
6.4862e-07
0.000204456
6.63923e-07
0.000204333
6.8792e-07
0.000204206
7.21298e-07
0.000204074
7.64748e-07
0.000203937
8.1896e-07
0.000203794
8.84621e-07
0.000203646
9.62416e-07
0.000203493
1.05302e-06
0.000203334
1.15709e-06
0.000203171
1.27528e-06
0.000203003
1.40819e-06
0.000202832
1.55643e-06
0.000202659
1.72051e-06
0.000202485
1.90092e-06
0.000202313
2.09803e-06
0.000202144
2.31213e-06
0.000201982
2.54335e-06
0.000201831
2.79164e-06
0.000201694
3.05674e-06
0.000201577
3.33811e-06
0.000201485
3.6349e-06
0.000201424
3.94587e-06
0.000201402
4.26938e-06
0.000201425
4.60326e-06
0.000201502
4.94486e-06
0.00020164
5.29096e-06
0.000201848
5.63778e-06
0.000202132
5.98102e-06
0.0002025
6.31586e-06
0.000202956
6.63715e-06
0.000203504
6.93946e-06
0.000204143
7.21735e-06
0.000204872
7.46556e-06
0.000205687
7.67931e-06
0.000206578
7.85463e-06
7.98869e-06
0.000207535
0.00022445
-1.73949e-07
0.000224482
-2.18193e-07
0.000224514
-8.56662e-08
0.000224534
2.19172e-07
0.000224528
6.48863e-07
0.000224487
1.12331e-06
0.000224406
1.55865e-06
0.000224285
1.89481e-06
0.000224131
2.10791e-06
0.000223952
2.20626e-06
0.000223758
2.21707e-06
0.000223558
2.17245e-06
0.000223357
2.1e-06
0.00022316
2.01884e-06
0.000222969
1.93976e-06
0.000222785
1.86728e-06
0.000222609
1.80215e-06
0.000222439
1.7433e-06
0.000222275
1.68909e-06
0.000222117
1.63797e-06
0.000221965
1.58873e-06
0.000221817
1.54055e-06
0.000221674
1.4929e-06
0.000221535
1.44549e-06
0.000221399
1.39819e-06
0.000221267
1.35097e-06
0.000221138
1.30389e-06
0.000221012
1.25705e-06
0.000220889
1.21059e-06
0.000220768
1.16472e-06
0.000220649
1.11966e-06
0.000220532
1.07567e-06
0.000220416
1.03307e-06
0.000220301
9.9221e-07
0.000220187
9.53468e-07
0.000220073
9.17278e-07
0.000219958
8.84106e-07
0.000219843
8.54453e-07
0.000219727
8.28849e-07
0.000219609
8.07855e-07
0.00021949
7.92055e-07
0.000219367
7.82051e-07
0.000219242
7.78462e-07
0.000219114
7.81916e-07
0.000218983
7.93047e-07
0.000218847
8.12491e-07
0.000218708
8.40879e-07
0.000218564
8.78836e-07
0.000218415
9.26974e-07
0.000218262
9.85888e-07
0.000218105
1.05615e-06
0.000217944
1.13832e-06
0.000217779
1.23289e-06
0.00021761
1.34035e-06
0.000217439
1.46113e-06
0.000217267
1.59559e-06
0.000217095
1.74404e-06
0.000216924
1.90668e-06
0.000216756
2.08365e-06
0.000216595
2.27492e-06
0.000216442
2.48035e-06
0.000216302
2.69962e-06
0.000216177
2.93221e-06
0.000216072
3.17736e-06
0.000215992
3.43408e-06
0.000215941
3.70107e-06
0.000215926
3.9767e-06
0.000215952
4.25902e-06
0.000216025
4.54573e-06
0.000216151
4.83414e-06
0.000216337
5.12125e-06
0.000216586
5.40374e-06
0.000216905
5.67801e-06
0.000217296
5.94028e-06
0.000217761
6.18669e-06
0.000218303
6.4134e-06
0.000218918
6.61674e-06
0.000219605
6.79335e-06
0.000220359
6.94039e-06
0.000221173
7.05563e-06
7.13769e-06
0.000222039
0.000240171
-1.94441e-07
0.000240205
-2.51999e-07
0.000240241
-1.2135e-07
0.000240266
1.94451e-07
0.000240267
6.48129e-07
0.000240234
1.15723e-06
0.00024016
1.63309e-06
0.000240046
2.00978e-06
0.000239896
2.25829e-06
0.00023972
2.3837e-06
0.000239526
2.41223e-06
0.000239323
2.37678e-06
0.000239118
2.30676e-06
0.000238916
2.22339e-06
0.000238719
2.13933e-06
0.000238528
2.06054e-06
0.000238344
1.98873e-06
0.000238167
1.92339e-06
0.000237996
1.86316e-06
0.000237832
1.80658e-06
0.000237672
1.75245e-06
0.000237517
1.6999e-06
0.000237367
1.64834e-06
0.00023722
1.59744e-06
0.000237077
1.54702e-06
0.000236937
1.49705e-06
0.000236799
1.44755e-06
0.000236665
1.39863e-06
0.000236532
1.35043e-06
0.000236401
1.30317e-06
0.000236272
1.25707e-06
0.000236144
1.21241e-06
0.000236017
1.16952e-06
0.000235889
1.12876e-06
0.000235762
1.09051e-06
0.000235635
1.05522e-06
0.000235506
1.02335e-06
0.000235376
9.95396e-07
0.000235245
9.71882e-07
0.000235111
9.53356e-07
0.000234975
9.4038e-07
0.000234836
9.33532e-07
0.000234694
9.33395e-07
0.000234548
9.40557e-07
0.0002344
9.55598e-07
0.000234247
9.79091e-07
0.00023409
1.01159e-06
0.00023393
1.05364e-06
0.000233766
1.10574e-06
0.000233598
1.16837e-06
0.000233428
1.24196e-06
0.000233254
1.32691e-06
0.000233079
1.42354e-06
0.000232903
1.53213e-06
0.000232727
1.65288e-06
0.000232553
1.7859e-06
0.000232382
1.93123e-06
0.000232216
2.08878e-06
0.000232058
2.25835e-06
0.00023191
2.43959e-06
0.000231775
2.63201e-06
0.000231656
2.83494e-06
0.000231557
3.04752e-06
0.000231483
3.26869e-06
0.000231436
3.49716e-06
0.000231422
3.73142e-06
0.000231446
3.96972e-06
0.000231512
4.21004e-06
0.000231624
4.45019e-06
0.000231787
4.68772e-06
0.000232005
4.92002e-06
0.000232281
5.14435e-06
0.000232617
5.35788e-06
0.000233016
5.55776e-06
0.000233478
5.74123e-06
0.000234002
5.90565e-06
0.000234586
6.04862e-06
0.000235227
6.16808e-06
0.000235921
6.26237e-06
0.000236662
6.33031e-06
6.37134e-06
0.000237444
0.000256993
-2.1571e-07
0.000257028
-2.87487e-07
0.000257067
-1.59828e-07
0.000257096
1.65615e-07
0.000257103
6.4194e-07