/*--------------------------------*- C++ -*----------------------------------*\
| =========                 |                                                 |
| \\      /  F ield         | OpenFOAM: The Open Source CFD Toolbox           |
|  \\    /   O peration     | Version:  2106                                  |
|   \\  /    A nd           | Website:  www.openfoam.com                      |
|    \\/     M anipulation  |                                                 |
\*---------------------------------------------------------------------------*/
FoamFile
{
    version     2.0;
    format      ascii;
    arch        "LSB;label=32;scalar=64";
    class       volScalarField;
    location    "0.79";
    object      T;
}
// * * * * * * * * * * * * * * * * * * * * * * * * * * * * * * * * * * * * * //

dimensions      [0 0 0 1 0 0 0];

internalField   nonuniform List<scalar> 
12013
(
300
300
300.001
300.001
300.001
300.001
300.002
300.002
300.003
300.003
300.004
300.005
300.006
300.007
300.009
300.01
300.012
300.014
300.017
300.019
300.022
300.025
300.029
300.033
300.038
300.043
300.048
300.054
300.061
300.068
300.076
300.084
300.093
300.103
300.113
300.124
300.136
300.149
300.163
300.177
300.193
300.209
300.226
300.244
300.264
300.284
300.305
300.327
300.351
300.375
300.401
300.428
300.456
300.485
300.516
300.548
300.581
300.615
300.651
300.689
300.728
300.769
300.811
300.855
300.9
300.948
300.998
301.049
301.103
301.16
301.219
301.281
301.346
301.415
301.488
301.566
301.65
301.742
301.843
301.959
302.098
300
300
300.001
300.001
300.001
300.001
300.002
300.002
300.003
300.003
300.004
300.005
300.006
300.007
300.009
300.01
300.012
300.014
300.017
300.019
300.022
300.025
300.029
300.033
300.038
300.043
300.048
300.054
300.061
300.068
300.076
300.084
300.093
300.103
300.113
300.124
300.136
300.149
300.163
300.177
300.193
300.209
300.226
300.244
300.263
300.284
300.305
300.327
300.351
300.375
300.401
300.428
300.456
300.485
300.516
300.547
300.581
300.615
300.651
300.689
300.727
300.768
300.81
300.854
300.9
300.947
300.996
301.048
301.102
301.158
301.217
301.279
301.343
301.412
301.484
301.561
301.644
301.733
301.83
301.938
302.056
300
300
300.001
300.001
300.001
300.001
300.002
300.002
300.003
300.003
300.004
300.005
300.006
300.007
300.009
300.01
300.012
300.014
300.017
300.019
300.022
300.025
300.029
300.033
300.038
300.043
300.048
300.054
300.061
300.068
300.076
300.084
300.093
300.103
300.113
300.124
300.136
300.149
300.163
300.177
300.192
300.209
300.226
300.244
300.263
300.283
300.305
300.327
300.35
300.375
300.4
300.427
300.455
300.484
300.515
300.547
300.58
300.614
300.65
300.687
300.726
300.767
300.809
300.852
300.898
300.945
300.994
301.045
301.099
301.155
301.213
301.274
301.338
301.405
301.476
301.551
301.631
301.716
301.806
301.902
302.003
300
300
300.001
300.001
300.001
300.001
300.002
300.002
300.003
300.003
300.004
300.005
300.006
300.007
300.009
300.01
300.012
300.014
300.016
300.019
300.022
300.025
300.029
300.033
300.038
300.043
300.048
300.054
300.061
300.068
300.075
300.084
300.093
300.103
300.113
300.124
300.136
300.149
300.162
300.177
300.192
300.208
300.226
300.244
300.263
300.283
300.304
300.326
300.35
300.374
300.4
300.426
300.454
300.483
300.514
300.546
300.579
300.613
300.649
300.686
300.724
300.765
300.806
300.85
300.895
300.942
300.99
301.041
301.094
301.149
301.206
301.266
301.329
301.395
301.463
301.535
301.611
301.691
301.773
301.859
301.945
300
300
300.001
300.001
300.001
300.001
300.002
300.002
300.003
300.003
300.004
300.005
300.006
300.007
300.009
300.01
300.012
300.014
300.016
300.019
300.022
300.025
300.029
300.033
300.038
300.043
300.048
300.054
300.061
300.068
300.075
300.084
300.093
300.102
300.113
300.124
300.136
300.149
300.162
300.177
300.192
300.208
300.225
300.243
300.262
300.282
300.303
300.326
300.349
300.373
300.399
300.425
300.453
300.482
300.512
300.544
300.577
300.611
300.646
300.683
300.722
300.761
300.803
300.846
300.89
300.937
300.985
301.035
301.087
301.141
301.197
301.256
301.317
301.38
301.446
301.514
301.585
301.659
301.734
301.81
301.886
300
300
300.001
300.001
300.001
300.001
300.002
300.002
300.003
300.003
300.004
300.005
300.006
300.007
300.009
300.01
300.012
300.014
300.016
300.019
300.022
300.025
300.029
300.033
300.038
300.042
300.048
300.054
300.06
300.067
300.075
300.083
300.092
300.102
300.112
300.124
300.135
300.148
300.162
300.176
300.191
300.207
300.224
300.243
300.261
300.281
300.303
300.325
300.348
300.372
300.397
300.424
300.451
300.48
300.51
300.542
300.574
300.608
300.643
300.68
300.718
300.757
300.798
300.841
300.885
300.93
300.978
301.027
301.078
301.13
301.185
301.242
301.3
301.361
301.423
301.488
301.554
301.622
301.69
301.759
301.826
300
300
300
300.001
300.001
300.001
300.002
300.002
300.003
300.003
300.004
300.005
300.006
300.007
300.009
300.01
300.012
300.014
300.016
300.019
300.022
300.025
300.029
300.033
300.037
300.042
300.048
300.054
300.06
300.067
300.075
300.083
300.092
300.102
300.112
300.123
300.135
300.148
300.161
300.175
300.191
300.207
300.224
300.242
300.26
300.28
300.301
300.323
300.346
300.37
300.395
300.422
300.449
300.478
300.508
300.539
300.571
300.604
300.639
300.675
300.713
300.752
300.792
300.834
300.877
300.922
300.968
301.016
301.065
301.117
301.169
301.224
301.28
301.338
301.397
301.457
301.518
301.581
301.643
301.705
301.765
300
300
300
300.001
300.001
300.001
300.002
300.002
300.003
300.003
300.004
300.005
300.006
300.007
300.009
300.01
300.012
300.014
300.016
300.019
300.022
300.025
300.029
300.033
300.037
300.042
300.048
300.054
300.06
300.067
300.075
300.083
300.092
300.101
300.112
300.123
300.134
300.147
300.16
300.175
300.19
300.206
300.223
300.24
300.259
300.279
300.3
300.321
300.344
300.368
300.393
300.419
300.446
300.475
300.504
300.535
300.567
300.6
300.634
300.67
300.706
300.745
300.784
300.825
300.867
300.911
300.956
301.003
301.05
301.1
301.15
301.202
301.256
301.31
301.366
301.422
301.479
301.536
301.592
301.648
301.703
300
300
300
300.001
300.001
300.001
300.002
300.002
300.003
300.003
300.004
300.005
300.006
300.007
300.009
300.01
300.012
300.014
300.016
300.019
300.022
300.025
300.029
300.033
300.037
300.042
300.047
300.053
300.06
300.067
300.074
300.082
300.091
300.101
300.111
300.122
300.134
300.146
300.159
300.174
300.189
300.204
300.221
300.239
300.257
300.277
300.298
300.319
300.342
300.365
300.39
300.416
300.443
300.471
300.5
300.53
300.561
300.594
300.627
300.662
300.699
300.736
300.775
300.814
300.856
300.898
300.942
300.986
301.032
301.08
301.128
301.177
301.228
301.279
301.331
301.383
301.435
301.487
301.539
301.59
301.64
300
300
300
300.001
300.001
300.001
300.002
300.002
300.003
300.003
300.004
300.005
300.006
300.007
300.009
300.01
300.012
300.014
300.016
300.019
300.022
300.025
300.029
300.033
300.037
300.042
300.047
300.053
300.059
300.066
300.074
300.082
300.091
300.1
300.11
300.121
300.133
300.145
300.158
300.172
300.187
300.203
300.219
300.237
300.255
300.275
300.295
300.316
300.339
300.362
300.386
300.412
300.438
300.466
300.494
300.524
300.555
300.587
300.62
300.654
300.689
300.725
300.763
300.802
300.842
300.882
300.924
300.967
301.011
301.056
301.102
301.149
301.196
301.244
301.292
301.34
301.389
301.437
301.484
301.531
301.576
300
300
300
300.001
300.001
300.001
300.002
300.002
300.003
300.003
300.004
300.005
300.006
300.007
300.008
300.01
300.012
300.014
300.016
300.019
300.022
300.025
300.028
300.032
300.037
300.042
300.047
300.053
300.059
300.066
300.073
300.081
300.09
300.099
300.109
300.12
300.132
300.144
300.157
300.171
300.186
300.201
300.217
300.235
300.253
300.272
300.292
300.313
300.335
300.358
300.382
300.407
300.433
300.46
300.488
300.517
300.547
300.578
300.61
300.643
300.678
300.713
300.749
300.787
300.825
300.864
300.904
300.945
300.987
301.03
301.073
301.117
301.161
301.206
301.25
301.295
301.34
301.384
301.427
301.47
301.511
300
300
300
300.001
300.001
300.001
300.002
300.002
300.003
300.003
300.004
300.005
300.006
300.007
300.008
300.01
300.012
300.014
300.016
300.019
300.021
300.025
300.028
300.032
300.036
300.041
300.046
300.052
300.058
300.065
300.073
300.081
300.089
300.098
300.108
300.119
300.13
300.143
300.155
300.169
300.184
300.199
300.215
300.232
300.25
300.269
300.288
300.309
300.331
300.353
300.376
300.401
300.426
300.453
300.48
300.508
300.538
300.568
300.599
300.631
300.664
300.698
300.733
300.769
300.806
300.843
300.882
300.921
300.96
301
301.041
301.082
301.123
301.164
301.206
301.247
301.288
301.328
301.368
301.407
301.445
300
300
300
300.001
300.001
300.001
300.002
300.002
300.003
300.003
300.004
300.005
300.006
300.007
300.008
300.01
300.012
300.014
300.016
300.018
300.021
300.024
300.028
300.032
300.036
300.041
300.046
300.052
300.058
300.065
300.072
300.08
300.088
300.097
300.107
300.118
300.129
300.141
300.153
300.167
300.181
300.196
300.212
300.229
300.246
300.265
300.284
300.304
300.325
300.347
300.37
300.394
300.419
300.444
300.471
300.498
300.527
300.556
300.586
300.617
300.649
300.682
300.715
300.749
300.784
300.82
300.856
300.893
300.93
300.968
301.006
301.044
301.082
301.12
301.158
301.196
301.234
301.271
301.308
301.343
301.378
300
300
300
300.001
300.001
300.001
300.002
300.002
300.003
300.003
300.004
300.005
300.006
300.007
300.008
300.01
300.011
300.013
300.016
300.018
300.021
300.024
300.027
300.031
300.036
300.04
300.045
300.051
300.057
300.064
300.071
300.079
300.087
300.096
300.106
300.116
300.127
300.139
300.151
300.164
300.178
300.193
300.209
300.225
300.242
300.26
300.279
300.299
300.319
300.341
300.363
300.386
300.41
300.435
300.46
300.487
300.514
300.542
300.571
300.601
300.632
300.663
300.695
300.727
300.76
300.794
300.828
300.862
300.897
300.932
300.967
301.003
301.038
301.073
301.109
301.143
301.178
301.212
301.245
301.278
301.31
300
300
300
300.001
300.001
300.001
300.002
300.002
300.003
300.003
300.004
300.005
300.006
300.007
300.008
300.01
300.011
300.013
300.015
300.018
300.021
300.024
300.027
300.031
300.035
300.04
300.045
300.05
300.056
300.063
300.07
300.077
300.086
300.094
300.104
300.114
300.125
300.136
300.148
300.161
300.175
300.189
300.204
300.22
300.237
300.255
300.273
300.292
300.312
300.333
300.354
300.377
300.4
300.424
300.448
300.474
300.5
300.527
300.555
300.583
300.612
300.641
300.671
300.702
300.733
300.765
300.797
300.829
300.861
300.894
300.927
300.959
300.992
301.024
301.057
301.089
301.12
301.151
301.182
301.212
301.242
300
300
300
300.001
300.001
300.001
300.002
300.002
300.003
300.003
300.004
300.005
300.006
300.007
300.008
300.009
300.011
300.013
300.015
300.018
300.02
300.023
300.027
300.03
300.034
300.039
300.044
300.049
300.055
300.062
300.068
300.076
300.084
300.093
300.102
300.112
300.122
300.133
300.145
300.158
300.171
300.185
300.2
300.215
300.231
300.248
300.266
300.285
300.304
300.324
300.345
300.366
300.388
300.411
300.435
300.459
300.484
300.51
300.536
300.563
300.59
300.618
300.646
300.675
300.704
300.733
300.763
300.793
300.823
300.853
300.883
300.913
300.943
300.973
301.003
301.032
301.061
301.089
301.117
301.145
301.172
300
300
300
300.001
300.001
300.001
300.002
300.002
300.003
300.003
300.004
300.005
300.006
300.007
300.008
300.009
300.011
300.013
300.015
300.017
300.02
300.023
300.026
300.03
300.034
300.038
300.043
300.048
300.054
300.06
300.067
300.074
300.082
300.09
300.099
300.109
300.119
300.13
300.142
300.154
300.167
300.18
300.194
300.209
300.225
300.241
300.258
300.276
300.295
300.314
300.333
300.354
300.375
300.397
300.419
300.442
300.466
300.49
300.515
300.54
300.566
300.592
300.618
300.645
300.672
300.7
300.727
300.755
300.782
300.81
300.838
300.865
300.893
300.92
300.947
300.974
301
301.026
301.052
301.077
301.101
300
300
300
300.001
300.001
300.001
300.002
300.002
300.002
300.003
300.004
300.005
300.005
300.006
300.008
300.009
300.011
300.013
300.015
300.017
300.019
300.022
300.026
300.029
300.033
300.037
300.042
300.047
300.053
300.059
300.065
300.072
300.08
300.088
300.097
300.106
300.116
300.126
300.137
300.149
300.162
300.175
300.188
300.203
300.218
300.233
300.25
300.266
300.284
300.302
300.321
300.341
300.361
300.381
300.402
300.424
300.446
300.469
300.492
300.516
300.54
300.564
300.589
300.613
300.638
300.664
300.689
300.714
300.74
300.765
300.791
300.816
300.841
300.866
300.89
300.914
300.938
300.962
300.985
301.008
301.03
300
300
300
300.001
300.001
300.001
300.002
300.002
300.002
300.003
300.004
300.004
300.005
300.006
300.008
300.009
300.01
300.012
300.014
300.016
300.019
300.022
300.025
300.028
300.032
300.036
300.041
300.046
300.051
300.057
300.063
300.07
300.077
300.085
300.094
300.103
300.112
300.122
300.133
300.144
300.156
300.168
300.181
300.195
300.209
300.224
300.24
300.256
300.272
300.29
300.308
300.326
300.345
300.364
300.384
300.404
300.425
300.446
300.468
300.49
300.512
300.534
300.557
300.58
300.603
300.626
300.649
300.672
300.695
300.719
300.742
300.764
300.787
300.81
300.832
300.854
300.876
300.897
300.918
300.939
300.959
300
300
300
300.001
300.001
300.001
300.001
300.002
300.002
300.003
300.004
300.004
300.005
300.006
300.007
300.009
300.01
300.012
300.014
300.016
300.018
300.021
300.024
300.027
300.031
300.035
300.039
300.044
300.049
300.055
300.061
300.068
300.075
300.082
300.09
300.099
300.108
300.117
300.128
300.138
300.15
300.161
300.174
300.187
300.2
300.214
300.229
300.244
300.26
300.276
300.293
300.31
300.327
300.345
300.364
300.383
300.402
300.422
300.441
300.462
300.482
300.503
300.523
300.544
300.565
300.586
300.607
300.628
300.649
300.67
300.691
300.712
300.732
300.753
300.773
300.793
300.812
300.832
300.851
300.869
300.887
300
300
300
300.001
300.001
300.001
300.001
300.002
300.002
300.003
300.003
300.004
300.005
300.006
300.007
300.008
300.01
300.011
300.013
300.015
300.018
300.02
300.023
300.026
300.03
300.034
300.038
300.042
300.047
300.053
300.059
300.065
300.072
300.079
300.086
300.094
300.103
300.112
300.122
300.132
300.142
300.154
300.165
300.177
300.19
300.203
300.217
300.231
300.246
300.261
300.276
300.292
300.309
300.325
300.342
300.36
300.377
300.395
300.414
300.432
300.451
300.469
300.488
300.507
300.526
300.545
300.564
300.583
300.602
300.621
300.64
300.659
300.677
300.695
300.713
300.731
300.749
300.766
300.783
300.8
300.816
300
300
300
300.001
300.001
300.001
300.001
300.002
300.002
300.003
300.003
300.004
300.005
300.006
300.007
300.008
300.009
300.011
300.013
300.015
300.017
300.019
300.022
300.025
300.029
300.032
300.036
300.041
300.045
300.05
300.056
300.062
300.068
300.075
300.082
300.09
300.098
300.106
300.115
300.125
300.135
300.145
300.156
300.167
300.179
300.192
300.204
300.217
300.231
300.245
300.259
300.274
300.289
300.304
300.32
300.335
300.352
300.368
300.384
300.401
300.418
300.435
300.452
300.469
300.486
300.503
300.52
300.538
300.555
300.571
300.588
300.605
300.621
300.638
300.654
300.67
300.685
300.701
300.716
300.731
300.745
300
300
300
300.001
300.001
300.001
300.001
300.002
300.002
300.003
300.003
300.004
300.005
300.005
300.006
300.008
300.009
300.01
300.012
300.014
300.016
300.018
300.021
300.024
300.027
300.031
300.034
300.038
300.043
300.048
300.053
300.058
300.064
300.071
300.077
300.084
300.092
300.1
300.108
300.117
300.126
300.136
300.146
300.157
300.168
300.179
300.19
300.203
300.215
300.228
300.241
300.254
300.268
300.282
300.296
300.31
300.325
300.339
300.354
300.369
300.384
300.4
300.415
300.43
300.445
300.461
300.476
300.491
300.506
300.521
300.536
300.551
300.566
300.58
300.594
300.608
300.622
300.636
300.649
300.663
300.676
300
300
300
300.001
300.001
300.001
300.001
300.002
300.002
300.002
300.003
300.004
300.004
300.005
300.006
300.007
300.008
300.01
300.011
300.013
300.015
300.017
300.02
300.023
300.025
300.029
300.032
300.036
300.04
300.045
300.049
300.055
300.06
300.066
300.072
300.079
300.086
300.093
300.101
300.109
300.118
300.126
300.136
300.145
300.155
300.165
300.176
300.187
300.198
300.21
300.221
300.234
300.246
300.258
300.271
300.284
300.297
300.31
300.323
300.337
300.35
300.364
300.377
300.391
300.404
300.418
300.431
300.445
300.458
300.471
300.484
300.497
300.51
300.523
300.536
300.548
300.56
300.572
300.584
300.596
300.607
300
300
300
300
300.001
300.001
300.001
300.001
300.002
300.002
300.003
300.003
300.004
300.005
300.006
300.007
300.008
300.009
300.011
300.012
300.014
300.016
300.019
300.021
300.024
300.027
300.03
300.034
300.037
300.042
300.046
300.051
300.056
300.061
300.067
300.073
300.079
300.086
300.093
300.1
300.108
300.116
300.125
300.133
300.142
300.151
300.161
300.171
300.181
300.191
300.202
300.212
300.223
300.234
300.246
300.257
300.269
300.28
300.292
300.304
300.316
300.328
300.339
300.351
300.363
300.375
300.387
300.399
300.41
300.422
300.433
300.445
300.456
300.467
300.478
300.489
300.499
300.51
300.52
300.53
300.54
300
300
300
300
300.001
300.001
300.001
300.001
300.002
300.002
300.003
300.003
300.004
300.004
300.005
300.006
300.007
300.009
300.01
300.011
300.013
300.015
300.017
300.019
300.022
300.025
300.028
300.031
300.034
300.038
300.042
300.046
300.051
300.056
300.061
300.067
300.072
300.078
300.085
300.091
300.098
300.106
300.113
300.121
300.129
300.137
300.145
300.154
300.163
300.172
300.181
300.191
300.201
300.21
300.22
300.23
300.24
300.251
300.261
300.271
300.281
300.292
300.302
300.312
300.323
300.333
300.343
300.353
300.363
300.373
300.383
300.393
300.403
300.412
300.422
300.431
300.44
300.45
300.458
300.467
300.476
300
300
300
300
300.001
300.001
300.001
300.001
300.002
300.002
300.002
300.003
300.003
300.004
300.005
300.006
300.007
300.008
300.009
300.01
300.012
300.014
300.016
300.018
300.02
300.022
300.025
300.028
300.031
300.035
300.038
300.042
300.046
300.051
300.055
300.06
300.065
300.071
300.076
300.082
300.088
300.095
300.101
300.108
300.115
300.122
300.13
300.137
300.145
300.153
300.161
300.169
300.178
300.186
300.195
300.204
300.212
300.221
300.23
300.239
300.248
300.256
300.265
300.274
300.283
300.292
300.301
300.309
300.318
300.327
300.335
300.343
300.352
300.36
300.368
300.376
300.384
300.392
300.399
300.407
300.414
300
300
300
300
300.001
300.001
300.001
300.001
300.001
300.002
300.002
300.003
300.003
300.004
300.004
300.005
300.006
300.007
300.008
300.009
300.011
300.012
300.014
300.016
300.018
300.02
300.023
300.025
300.028
300.031
300.034
300.038
300.041
300.045
300.049
300.053
300.058
300.063
300.068
300.073
300.078
300.084
300.089
300.095
300.101
300.108
300.114
300.121
300.127
300.134
300.141
300.148
300.155
300.163
300.17
300.177
300.185
300.192
300.2
300.207
300.215
300.222
300.23
300.237
300.245
300.252
300.26
300.267
300.274
300.282
300.289
300.296
300.303
300.31
300.317
300.324
300.33
300.337
300.343
300.35
300.356
300
300
300
300
300
300.001
300.001
300.001
300.001
300.002
300.002
300.002
300.003
300.003
300.004
300.005
300.005
300.006
300.007
300.008
300.01
300.011
300.012
300.014
300.016
300.018
300.02
300.022
300.025
300.027
300.03
300.033
300.036
300.04
300.043
300.047
300.051
300.055
300.059
300.063
300.068
300.073
300.078
300.083
300.088
300.093
300.099
300.104
300.11
300.116
300.122
300.128
300.134
300.14
300.146
300.152
300.158
300.165
300.171
300.177
300.184
300.19
300.196
300.202
300.209
300.215
300.221
300.227
300.233
300.239
300.245
300.251
300.257
300.263
300.269
300.274
300.28
300.285
300.291
300.296
300.301
300
300
300
300
300
300.001
300.001
300.001
300.001
300.001
300.002
300.002
300.002
300.003
300.003
300.004
300.005
300.005
300.006
300.007
300.008
300.01
300.011
300.012
300.014
300.015
300.017
300.019
300.021
300.024
300.026
300.028
300.031
300.034
300.037
300.04
300.043
300.047
300.051
300.054
300.058
300.062
300.066
300.07
300.075
300.079
300.084
300.088
300.093
300.098
300.103
300.108
300.113
300.118
300.123
300.128
300.133
300.139
300.144
300.149
300.154
300.159
300.165
300.17
300.175
300.18
300.185
300.19
300.195
300.2
300.205
300.21
300.215
300.219
300.224
300.229
300.233
300.238
300.242
300.246
300.251
300
300
300
300
300
300
300.001
300.001
300.001
300.001
300.001
300.002
300.002
300.002
300.003
300.003
300.004
300.005
300.005
300.006
300.007
300.008
300.009
300.01
300.012
300.013
300.015
300.016
300.018
300.02
300.022
300.024
300.026
300.029
300.031
300.034
300.037
300.039
300.042
300.045
300.049
300.052
300.055
300.059
300.062
300.066
300.07
300.074
300.077
300.081
300.085
300.089
300.094
300.098
300.102
300.106
300.11
300.114
300.119
300.123
300.127
300.131
300.135
300.14
300.144
300.148
300.152
300.156
300.16
300.164
300.168
300.172
300.176
300.179
300.183
300.187
300.191
300.194
300.198
300.201
300.205
300
300
300
300
300
300
300
300.001
300.001
300.001
300.001
300.001
300.002
300.002
300.002
300.003
300.003
300.004
300.004
300.005
300.006
300.007
300.008
300.009
300.01
300.011
300.012
300.014
300.015
300.016
300.018
300.02
300.022
300.024
300.026
300.028
300.03
300.032
300.035
300.037
300.04
300.042
300.045
300.048
300.051
300.054
300.057
300.06
300.063
300.066
300.069
300.073
300.076
300.079
300.082
300.086
300.089
300.092
300.096
300.099
300.102
300.106
300.109
300.112
300.116
300.119
300.122
300.125
300.128
300.132
300.135
300.138
300.141
300.144
300.147
300.15
300.153
300.155
300.158
300.161
300.164
300
300
300
300
300
300
300
300
300.001
300.001
300.001
300.001
300.001
300.002
300.002
300.002
300.003
300.003
300.004
300.004
300.005
300.005
300.006
300.007
300.008
300.009
300.01
300.011
300.012
300.013
300.015
300.016
300.017
300.019
300.021
300.022
300.024
300.026
300.028
300.03
300.032
300.034
300.036
300.038
300.04
300.043
300.045
300.048
300.05
300.052
300.055
300.057
300.06
300.062
300.065
300.068
300.07
300.073
300.075
300.078
300.08
300.083
300.086
300.088
300.091
300.093
300.096
300.098
300.101
300.103
300.105
300.108
300.11
300.113
300.115
300.117
300.119
300.122
300.124
300.126
300.128
300
300
300
300
300
300
300
300
300
300.001
300.001
300.001
300.001
300.001
300.001
300.002
300.002
300.002
300.003
300.003
300.004
300.004
300.005
300.005
300.006
300.007
300.008
300.009
300.009
300.01
300.011
300.012
300.014
300.015
300.016
300.017
300.019
300.02
300.022
300.023
300.025
300.026
300.028
300.03
300.031
300.033
300.035
300.037
300.038
300.04
300.042
300.044
300.046
300.048
300.05
300.052
300.054
300.056
300.058
300.06
300.062
300.064
300.065
300.067
300.069
300.071
300.073
300.075
300.077
300.079
300.08
300.082
300.084
300.086
300.087
300.089
300.091
300.093
300.094
300.096
300.097
300
300
300
300
300
300
300
300
300
300
300.001
300.001
300.001
300.001
300.001
300.001
300.002
300.002
300.002
300.002
300.003
300.003
300.004
300.004
300.005
300.005
300.006
300.006
300.007
300.008
300.009
300.009
300.01
300.011
300.012
300.013
300.014
300.015
300.016
300.017
300.018
300.02
300.021
300.022
300.023
300.025
300.026
300.027
300.029
300.03
300.031
300.033
300.034
300.036
300.037
300.039
300.04
300.041
300.043
300.044
300.046
300.047
300.049
300.05
300.051
300.053
300.054
300.055
300.057
300.058
300.059
300.061
300.062
300.063
300.065
300.066
300.067
300.068
300.07
300.071
300.072
300
300
300
300
300
300
300
300
300
300
300
300
300.001
300.001
300.001
300.001
300.001
300.001
300.001
300.002
300.002
300.002
300.003
300.003
300.003
300.004
300.004
300.005
300.005
300.006
300.006
300.007
300.007
300.008
300.009
300.009
300.01
300.011
300.012
300.013
300.013
300.014
300.015
300.016
300.017
300.018
300.019
300.02
300.021
300.022
300.023
300.024
300.025
300.026
300.027
300.028
300.029
300.03
300.031
300.032
300.033
300.034
300.035
300.036
300.037
300.038
300.039
300.04
300.041
300.042
300.043
300.043
300.044
300.045
300.046
300.047
300.048
300.049
300.05
300.05
300.051
300
300
300
300
300
300
300
300
300
300
300
300
300
300
300
300.001
300.001
300.001
300.001
300.001
300.001
300.002
300.002
300.002
300.002
300.003
300.003
300.003
300.004
300.004
300.004
300.005
300.005
300.006
300.006
300.007
300.007
300.008
300.008
300.009
300.009
300.01
300.01
300.011
300.012
300.012
300.013
300.014
300.014
300.015
300.016
300.016
300.017
300.018
300.018
300.019
300.02
300.02
300.021
300.022
300.023
300.023
300.024
300.025
300.025
300.026
300.027
300.027
300.028
300.029
300.029
300.03
300.031
300.031
300.032
300.032
300.033
300.034
300.034
300.035
300.035
300
300
300
300
300
300
300
300
300
300
300
300
300
300
300
300
300
300
300.001
300.001
300.001
300.001
300.001
300.001
300.001
300.002
300.002
300.002
300.002
300.002
300.003
300.003
300.003
300.004
300.004
300.004
300.005
300.005
300.005
300.006
300.006
300.006
300.007
300.007
300.008
300.008
300.009
300.009
300.009
300.01
300.01
300.011
300.011
300.012
300.012
300.013
300.013
300.014
300.014
300.014
300.015
300.015
300.016
300.016
300.017
300.017
300.018
300.018
300.019
300.019
300.019
300.02
300.02
300.021
300.021
300.021
300.022
300.022
300.023
300.023
300.023
300
300
300
300
300
300
300
300
300
300
300
300
300
300
300
300
300
300
300
300
300
300
300.001
300.001
300.001
300.001
300.001
300.001
300.001
300.001
300.002
300.002
300.002
300.002
300.002
300.003
300.003
300.003
300.003
300.004
300.004
300.004
300.004
300.005
300.005
300.005
300.005
300.006
300.006
300.006
300.007
300.007
300.007
300.007
300.008
300.008
300.008
300.009
300.009
300.009
300.01
300.01
300.01
300.01
300.011
300.011
300.011
300.012
300.012
300.012
300.012
300.013
300.013
300.013
300.013
300.014
300.014
300.014
300.015
300.015
300.015
300
300
300
300
300
300
300
300
300
300
300
300
300
300
300
300
300
300
300
300
300
300
300
300
300
300
300.001
300.001
300.001
300.001
300.001
300.001
300.001
300.001
300.001
300.002
300.002
300.002
300.002
300.002
300.002
300.003
300.003
300.003
300.003
300.003
300.003
300.004
300.004
300.004
300.004
300.004
300.005
300.005
300.005
300.005
300.005
300.006
300.006
300.006
300.006
300.006
300.006
300.007
300.007
300.007
300.007
300.007
300.008
300.008
300.008
300.008
300.008
300.008
300.009
300.009
300.009
300.009
300.009
300.01
300.01
300
300
300
300
300
300
300
300
300
300
300
300
300
300
300
300
300
300
300
300
300
300
300
300
300
300
300
300
300
300
300.001
300.001
300.001
300.001
300.001
300.001
300.001
300.001
300.001
300.001
300.002
300.002
300.002
300.002
300.002
300.002
300.002
300.003
300.003
300.003
300.003
300.003
300.003
300.003
300.003
300.004
300.004
300.004
300.004
300.004
300.004
300.005
300.005
300.005
300.005
300.005
300.005
300.005
300.005
300.006
300.006
300.006
300.006
300.006
300.006
300.006
300.007
300.007
300.007
300.007
300.007
302.283
302.404
302.476
302.541
302.599
302.644
302.674
302.709
302.743
302.774
302.8
302.828
302.857
302.884
302.911
302.937
302.961
302.983
303.005
303.027
303.049
303.071
303.092
303.113
303.133
303.154
303.173
303.192
303.21
303.228
303.246
303.263
303.28
303.296
303.313
303.328
303.343
303.359
303.373
303.387
303.401
303.415
303.429
303.443
303.457
303.47
303.482
303.495
303.507
303.52
303.531
303.542
303.553
303.564
303.575
303.585
303.596
303.607
303.617
303.626
303.634
303.642
303.651
303.659
303.667
303.675
303.683
303.691
303.698
303.705
303.712
303.718
303.724
303.73
303.736
303.741
303.746
303.751
303.756
303.761
303.766
303.77
303.774
303.778
303.781
303.784
303.787
303.791
303.794
303.796
303.799
303.801
303.804
303.806
303.808
303.81
303.811
303.813
303.814
303.816
303.817
303.818
303.818
303.819
303.82
303.821
303.821
303.822
303.822
303.822
303.822
303.823
303.823
303.823
303.823
303.823
303.823
303.823
303.822
303.822
303.822
303.822
303.821
303.82
303.819
303.819
303.818
303.816
303.815
303.813
303.81
303.807
303.804
303.801
303.797
303.792
303.787
303.781
303.774
303.766
303.758
303.749
303.739
303.727
303.714
303.7
303.684
303.666
303.645
303.621
303.591
303.559
303.527
303.489
303.445
303.394
303.336
303.234
303.135
303.006
302.827
302.184
302.29
302.372
302.44
302.499
302.548
302.588
302.626
302.662
302.695
302.725
302.755
302.784
302.813
302.84
302.867
302.892
302.915
302.939
302.961
302.984
303.006
303.028
303.049
303.07
303.09
303.109
303.129
303.148
303.166
303.184
303.201
303.218
303.235
303.251
303.267
303.283
303.298
303.313
303.327
303.342
303.355
303.369
303.384
303.397
303.411
303.423
303.436
303.448
303.461
303.472
303.483
303.494
303.505
303.516
303.527
303.538
303.548
303.558
303.567
303.576
303.584
303.593
303.601
303.609
303.617
303.625
303.633
303.64
303.647
303.654
303.66
303.666
303.672
303.678
303.683
303.688
303.693
303.698
303.703
303.708
303.712
303.716
303.72
303.723
303.726
303.73
303.733
303.736
303.739
303.741
303.743
303.746
303.748
303.75
303.752
303.754
303.755
303.756
303.758
303.759
303.76
303.761
303.761
303.762
303.763
303.763
303.764
303.764
303.764
303.765
303.765
303.765
303.765
303.765
303.765
303.765
303.765
303.765
303.764
303.764
303.764
303.763
303.763
303.762
303.761
303.76
303.758
303.757
303.755
303.752
303.75
303.747
303.743
303.739
303.734
303.729
303.723
303.716
303.709
303.701
303.692
303.681
303.67
303.657
303.643
303.627
303.609
303.588
303.563
303.534
303.502
303.469
303.431
303.386
303.333
303.271
303.173
303.069
302.934
302.738
302.104
302.195
302.274
302.343
302.402
302.454
302.499
302.54
302.578
302.613
302.646
302.678
302.708
302.738
302.766
302.793
302.819
302.844
302.868
302.892
302.915
302.937
302.959
302.981
303.002
303.023
303.043
303.062
303.081
303.1
303.118
303.136
303.153
303.17
303.187
303.203
303.219
303.234
303.249
303.264
303.278
303.292
303.307
303.321
303.334
303.348
303.36
303.373
303.386
303.398
303.41
303.421
303.432
303.443
303.454
303.465
303.476
303.486
303.496
303.505
303.514
303.522
303.531
303.539
303.548
303.556
303.564
303.571
303.578
303.585
303.592
303.598
303.605
303.611
303.616
303.622
303.627
303.632
303.637
303.642
303.646
303.651
303.655
303.658
303.662
303.665
303.668
303.672
303.674
303.677
303.68
303.682
303.684
303.686
303.688
303.69
303.692
303.694
303.695
303.696
303.697
303.698
303.699
303.7
303.701
303.701
303.702
303.702
303.703
303.703
303.703
303.703
303.704
303.704
303.704
303.704
303.704
303.704
303.703
303.703
303.703
303.702
303.702
303.701
303.7
303.699
303.698
303.697
303.695
303.693
303.691
303.688
303.685
303.682
303.678
303.673
303.668
303.662
303.655
303.648
303.64
303.631
303.621
303.609
303.597
303.582
303.566
303.548
303.527
303.503
303.473
303.442
303.408
303.369
303.323
303.269
303.204
303.108
303.001
302.86
302.654
302.03
302.111