/*--------------------------------*- C++ -*----------------------------------*\
| =========                 |                                                 |
| \\      /  F ield         | OpenFOAM: The Open Source CFD Toolbox           |
|  \\    /   O peration     | Version:  2106                                  |
|   \\  /    A nd           | Website:  www.openfoam.com                      |
|    \\/     M anipulation  |                                                 |
\*---------------------------------------------------------------------------*/
FoamFile
{
    version     2.0;
    format      ascii;
    arch        "LSB;label=32;scalar=64";
    class       volVectorField;
    location    "0.79";
    object      U;
}
// * * * * * * * * * * * * * * * * * * * * * * * * * * * * * * * * * * * * * //

dimensions      [0 1 -1 0 0 0 0];

internalField   nonuniform List<vector> 
12013
(
(0.100003 -6.76255e-07 0)
(0.100012 -4.67446e-07 0)
(0.100013 8.47467e-07 0)
(0.0999951 3.21753e-06 0)
(0.0999495 6.21363e-06 0)
(0.0998742 9.21023e-06 0)
(0.0997735 1.16415e-05 0)
(0.0996559 1.31964e-05 0)
(0.0995309 1.38643e-05 0)
(0.0994061 1.38512e-05 0)
(0.0992864 1.34429e-05 0)
(0.0991737 1.28963e-05 0)
(0.0990683 1.23822e-05 0)
(0.0989689 1.19821e-05 0)
(0.0988744 1.17095e-05 0)
(0.0987837 1.1541e-05 0)
(0.098696 1.144e-05 0)
(0.0986109 1.13705e-05 0)
(0.0985282 1.13056e-05 0)
(0.0984479 1.12268e-05 0)
(0.0983702 1.11234e-05 0)
(0.0982952 1.09899e-05 0)
(0.098223 1.08234e-05 0)
(0.0981539 1.0623e-05 0)
(0.098088 1.03885e-05 0)
(0.0980254 1.01197e-05 0)
(0.0979663 9.81635e-06 0)
(0.0979108 9.47828e-06 0)
(0.0978591 9.10518e-06 0)
(0.0978112 8.69739e-06 0)
(0.0977672 8.25541e-06 0)
(0.0977273 7.77971e-06 0)
(0.0976914 7.27247e-06 0)
(0.0976597 6.73632e-06 0)
(0.0976321 6.17467e-06 0)
(0.0976087 5.59242e-06 0)
(0.0975895 4.99601e-06 0)
(0.0975742 4.39248e-06 0)
(0.0975629 3.79102e-06 0)
(0.0975554 3.2025e-06 0)
(0.0975515 2.63859e-06 0)
(0.0975508 2.11346e-06 0)
(0.0975531 1.64319e-06 0)
(0.0975581 1.24548e-06 0)
(0.0975651 9.40594e-07 0)
(0.0975738 7.51124e-07 0)
(0.0975836 7.02e-07 0)
(0.0975938 8.21722e-07 0)
(0.0976036 1.14261e-06 0)
(0.0976122 1.70045e-06 0)
(0.0976187 2.5363e-06 0)
(0.097622 3.69734e-06 0)
(0.0976209 5.23738e-06 0)
(0.0976142 7.21954e-06 0)
(0.0976003 9.71692e-06 0)
(0.0975777 1.28151e-05 0)
(0.0975444 1.66169e-05 0)
(0.0974983 2.12441e-05 0)
(0.0974371 2.68442e-05 0)
(0.0973578 3.35964e-05 0)
(0.0972573 4.17211e-05 0)
(0.0971319 5.14911e-05 0)
(0.096977 6.32487e-05 0)
(0.0967873 7.7428e-05 0)
(0.0965566 9.45849e-05 0)
(0.0962771 0.000115442 0)
(0.0959392 0.000140955 0)
(0.0955312 0.000172399 0)
(0.095038 0.000211518 0)
(0.0944404 0.00026073 0)
(0.0937131 0.000323466 0)
(0.0928227 0.000404696 0)
(0.0917234 0.000511789 0)
(0.0903517 0.000655935 0)
(0.0886177 0.000854551 0)
(0.0863909 0.00113541 0)
(0.0834777 0.00154388 0)
(0.0795711 0.00215804 0)
(0.074191 0.00313583 0)
(0.0667656 0.00491946 0)
(0.0584022 0.00950193 0)
(0.100003 -2.08641e-06 0)
(0.100012 -1.46313e-06 0)
(0.100014 2.55712e-06 0)
(0.0999962 9.82086e-06 0)
(0.0999513 1.90105e-05 0)
(0.0998768 2.82099e-05 0)
(0.0997767 3.5681e-05 0)
(0.0996597 4.04657e-05 0)
(0.099535 4.25301e-05 0)
(0.0994105 4.2502e-05 0)
(0.0992909 4.12589e-05 0)
(0.0991783 3.95877e-05 0)
(0.0990727 3.80139e-05 0)
(0.0989733 3.67871e-05 0)
(0.0988788 3.59508e-05 0)
(0.098788 3.54333e-05 0)
(0.0987002 3.51217e-05 0)
(0.098615 3.49083e-05 0)
(0.0985323 3.4709e-05 0)
(0.0984519 3.44679e-05 0)
(0.0983741 3.4152e-05 0)
(0.098299 3.37441e-05 0)
(0.0982268 3.32357e-05 0)
(0.0981575 3.26243e-05 0)
(0.0980914 3.19086e-05 0)
(0.0980287 3.10882e-05 0)
(0.0979694 3.01628e-05 0)
(0.0979136 2.91315e-05 0)
(0.0978615 2.7994e-05 0)
(0.0978133 2.67505e-05 0)
(0.0977689 2.54021e-05 0)
(0.0977285 2.39523e-05 0)
(0.0976921 2.24061e-05 0)
(0.0976598 2.07723e-05 0)
(0.0976315 1.90616e-05 0)
(0.0976074 1.72888e-05 0)
(0.0975873 1.54725e-05 0)
(0.0975712 1.36363e-05 0)
(0.097559 1.18081e-05 0)
(0.0975504 1.00198e-05 0)
(0.0975453 8.30876e-06 0)
(0.0975434 6.71743e-06 0)
(0.0975445 5.2953e-06 0)
(0.097548 4.09741e-06 0)
(0.0975536 3.18496e-06 0)
(0.0975608 2.62692e-06 0)
(0.0975689 2.50093e-06 0)
(0.0975773 2.89353e-06 0)
(0.0975853 3.90297e-06 0)
(0.0975921 5.63931e-06 0)
(0.0975966 8.22889e-06 0)
(0.0975979 1.18149e-05 0)
(0.0975949 1.65625e-05 0)
(0.0975861 2.26626e-05 0)
(0.0975702 3.03392e-05 0)
(0.0975455 3.98539e-05 0)
(0.0975102 5.15177e-05 0)
(0.0974623 6.57023e-05 0)
(0.0973993 8.28547e-05 0)
(0.0973185 0.000103518 0)
(0.0972168 0.000128359 0)
(0.0970906 0.000158201 0)
(0.0969355 0.000194076 0)
(0.0967465 0.000237286 0)
(0.0965177 0.000289497 0)
(0.0962416 0.000352865 0)
(0.0959094 0.000430221 0)
(0.0955103 0.000525336 0)
(0.0950305 0.000643315 0)
(0.0944528 0.000791188 0)
(0.0937552 0.000978816 0)
(0.0929093 0.00122029 0)
(0.0918775 0.00153616 0)
(0.0906102 0.00195688 0)
(0.0890415 0.00252842 0)
(0.0870839 0.00332089 0)
(0.0846233 0.00444112 0)
(0.0815099 0.0060499 0)
(0.0775766 0.00838468 0)
(0.0728766 0.0117246 0)
(0.0687648 0.0159383 0)
(0.100003 -3.6171e-06 0)
(0.100012 -2.61101e-06 0)
(0.100014 4.2427e-06 0)
(0.0999981 1.66811e-05 0)
(0.0999546 3.24531e-05 0)
(0.0998817 4.82755e-05 0)
(0.0997833 6.11584e-05 0)
(0.0996677 6.94449e-05 0)
(0.0995441 7.30624e-05 0)
(0.0994203 7.30771e-05 0)
(0.099301 7.09897e-05 0)
(0.0991885 6.8149e-05 0)
(0.0990829 6.54609e-05 0)
(0.0989833 6.3358e-05 0)
(0.0988886 6.19191e-05 0)
(0.0987976 6.1025e-05 0)
(0.0987098 6.04843e-05 0)
(0.0986245 6.01138e-05 0)
(0.0985417 5.977e-05 0)
(0.0984613 5.93573e-05 0)
(0.0983834 5.88189e-05 0)
(0.0983083 5.8125e-05 0)
(0.0982359 5.72618e-05 0)
(0.0981665 5.62234e-05 0)
(0.0981002 5.50091e-05 0)
(0.0980371 5.36176e-05 0)
(0.0979774 5.20482e-05 0)
(0.0979213 5.03e-05 0)
(0.0978687 4.83723e-05 0)
(0.0978198 4.62656e-05 0)
(0.0977748 4.39819e-05 0)
(0.0977335 4.15278e-05 0)
(0.0976962 3.8912e-05 0)
(0.0976629 3.61492e-05 0)
(0.0976335 3.32586e-05 0)
(0.0976081 3.02654e-05 0)
(0.0975865 2.7202e-05 0)
(0.0975688 2.41091e-05 0)
(0.0975548 2.10342e-05 0)
(0.0975443 1.80322e-05 0)
(0.0975372 1.51677e-05 0)
(0.097533 1.2514e-05 0)
(0.0975316 1.01551e-05 0)
(0.0975326 8.18554e-06 0)
(0.0975354 6.71008e-06 0)
(0.0975396 5.84759e-06 0)
(0.0975446 5.73037e-06 0)
(0.0975498 6.50689e-06 0)
(0.0975544 8.34433e-06 0)
(0.0975575 1.14315e-05 0)
(0.0975584 1.59835e-05 0)
(0.0975558 2.22443e-05 0)
(0.0975488 3.04948e-05 0)
(0.0975361 4.10599e-05 0)
(0.0975161 5.43182e-05 0)
(0.0974875 7.0714e-05 0)
(0.0974482 9.07715e-05 0)
(0.0973965 0.000115117 0)
(0.0973299 0.000144502 0)
(0.097246 0.000179836 0)
(0.0971417 0.00022223 0)
(0.0970136 0.000273055 0)
(0.0968578 0.000334015 0)
(0.0966695 0.000407253 0)
(0.0964434 0.000495489 0)
(0.0961728 0.000602217 0)
(0.0958501 0.000731981 0)
(0.0954657 0.000890762 0)
(0.0950085 0.00108654 0)
(0.0944644 0.00133014 0)
(0.0938165 0.00163636 0)
(0.0930442 0.00202586 0)
(0.0921222 0.00252765 0)
(0.0910207 0.00318291 0)
(0.0897056 0.00405014 0)
(0.0881422 0.00521154 0)
(0.0863034 0.00677834 0)
(0.0841874 0.00888876 0)
(0.0818616 0.0116832 0)
(0.0795983 0.0151794 0)
(0.0781306 0.0187636 0)
(0.100003 -5.27742e-06 0)
(0.100012 -3.95491e-06 0)
(0.100016 5.81716e-06 0)
(0.100001 2.36578e-05 0)
(0.0999595 4.63629e-05 0)
(0.0998893 6.92195e-05 0)
(0.0997937 8.79135e-05 0)
(0.0996805 0.000100031 0)
(0.0995588 0.000105429 0)
(0.0994362 0.000105613 0)
(0.0993175 0.000102727 0)
(0.0992052 9.87095e-05 0)
(0.0990995 9.48714e-05 0)
(0.0989998 9.18479e-05 0)
(0.0989048 8.9764e-05 0)
(0.0988137 8.84574e-05 0)
(0.0987258 8.76606e-05 0)
(0.0986404 8.71122e-05 0)
(0.0985576 8.66088e-05 0)
(0.0984772 8.60123e-05 0)
(0.0983994 8.52419e-05 0)
(0.0983242 8.4253e-05 0)
(0.0982517 8.30264e-05 0)
(0.0981822 8.15528e-05 0)
(0.0981157 7.98308e-05 0)
(0.0980524 7.78589e-05 0)
(0.0979924 7.56362e-05 0)
(0.0979357 7.31616e-05 0)
(0.0978826 7.04344e-05 0)
(0.097833 6.74558e-05 0)
(0.0977871 6.42297e-05 0)
(0.0977449 6.07645e-05 0)
(0.0977064 5.70748e-05 0)
(0.0976717 5.3181e-05 0)
(0.0976408 4.91119e-05 0)
(0.0976137 4.49043e-05 0)
(0.0975902 4.06059e-05 0)
(0.0975704 3.62743e-05 0)
(0.097554 3.19782e-05 0)
(0.0975409 2.77982e-05 0)
(0.0975309 2.38263e-05 0)
(0.0975237 2.01695e-05 0)
(0.0975189 1.6948e-05 0)
(0.0975163 1.42972e-05 0)
(0.0975153 1.23689e-05 0)
(0.0975154 1.13336e-05 0)
(0.0975161 1.13809e-05 0)
(0.0975167 1.2724e-05 0)
(0.0975165 1.56021e-05 0)
(0.0975147 2.02858e-05 0)
(0.0975104 2.70813e-05 0)
(0.0975025 3.6337e-05 0)
(0.0974901 4.84521e-05 0)
(0.0974718 6.38882e-05 0)
(0.0974463 8.31803e-05 0)
(0.0974122 0.000106956 0)
(0.0973676 0.000135952 0)
(0.0973108 0.000171047 0)
(0.0972396 0.000213289 0)
(0.0971516 0.000263942 0)
(0.0970441 0.000324541 0)
(0.0969141 0.000396967 0)
(0.0967579 0.000483546 0)
(0.0965715 0.000587171 0)
(0.0963502 0.000711484 0)
(0.0960887 0.000861108 0)
(0.0957805 0.00104197 0)
(0.0954186 0.00126173 0)
(0.0949943 0.00153044 0)
(0.0944983 0.00186134 0)
(0.0939197 0.00227207 0)
(0.093247 0.00278623 0)
(0.0924684 0.00343553 0)
(0.0915739 0.00426228 0)
(0.0905586 0.00532202 0)
(0.0894296 0.00668466 0)
(0.088217 0.00843044 0)
(0.0869918 0.0106319 0)
(0.0858902 0.0133059 0)
(0.0851417 0.0162945 0)
(0.0850342 0.0190014 0)
(0.100003 -7.08769e-06 0)
(0.100013 -5.5533e-06 0)
(0.100017 7.15814e-06 0)
(0.100004 3.05544e-05 0)
(0.0999661 6.04835e-05 0)
(0.0998997 9.07636e-05 0)
(0.0998081 0.000115694 0)
(0.0996985 0.000132037 0)
(0.0995795 0.000139532 0)
(0.0994587 0.000140102 0)
(0.0993411 0.000136535 0)
(0.0992291 0.000131381 0)
(0.0991234 0.000126383 0)
(0.0990235 0.000122401 0)
(0.0989283 0.000119624 0)
(0.0988371 0.000117857 0)
(0.098749 0.000116763 0)
(0.0986637 0.000116004 0)
(0.098581 0.000115316 0)
(0.0985007 0.000114517 0)
(0.098423 0.000113501 0)
(0.0983479 0.000112208 0)
(0.0982755 0.00011061 0)
(0.098206 0.000108698 0)
(0.0981394 0.000106466 0)
(0.098076 0.000103913 0)
(0.0980157 0.000101038 0)
(0.0979586 9.78403e-05 0)
(0.0979049 9.43198e-05 0)
(0.0978546 9.04782e-05 0)
(0.0978078 8.6322e-05 0)
(0.0977645 8.18634e-05 0)
(0.0977248 7.71217e-05 0)
(0.0976886 7.21252e-05 0)
(0.097656 6.69126e-05 0)
(0.0976269 6.15338e-05 0)
(0.0976012 5.60521e-05 0)
(0.0975788 5.05443e-05 0)
(0.0975596 4.51013e-05 0)
(0.0975434 3.983e-05 0)
(0.09753 3.48531e-05 0)
(0.0975191 3.03113e-05 0)
(0.0975103 2.63631e-05 0)
(0.0975033 2.31873e-05 0)
(0.0974976 2.09844e-05 0)
(0.0974928 1.99775e-05 0)
(0.0974882 2.04166e-05 0)
(0.0974833 2.25809e-05 0)
(0.0974773 2.6784e-05 0)
(0.0974695 3.33798e-05 0)
(0.0974589 4.27667e-05 0)
(0.0974446 5.53978e-05 0)
(0.0974257 7.17918e-05 0)
(0.0974008 9.25447e-05 0)
(0.0973688 0.000118346 0)
(0.0973283 0.00015 0)
(0.0972776 0.000188449 0)
(0.0972151 0.000234807 0)
(0.0971388 0.0002904 0)
(0.0970466 0.000356812 0)
(0.0969362 0.000435958 0)
(0.0968049 0.000530159 0)
(0.0966497 0.000642258 0)
(0.0964674 0.000775754 0)
(0.0962543 0.000934989 0)
(0.0960062 0.00112539 0)
(0.0957187 0.00135378 0)
(0.0953871 0.00162881 0)
(0.0950063 0.00196147 0)
(0.0945712 0.00236586 0)
(0.0940776 0.00285999 0)
(0.0935225 0.0034669 0)
(0.0929058 0.00421572 0)
(0.0922333 0.0051426 0)
(0.0915198 0.00629054 0)
(0.0907957 0.00770659 0)
(0.0901142 0.00943294 0)
(0.0895598 0.011486 0)
(0.0892515 0.0138152 0)
(0.0893275 0.0162319 0)
(0.0898708 0.0183192 0)
(0.100003 -9.06998e-06 0)
(0.100013 -7.47442e-06 0)
(0.100019 8.11748e-06 0)
(0.100009 3.713e-05 0)
(0.0999745 7.44946e-05 0)
(0.099913 0.000112553 0)
(0.0998265 0.00014417 0)
(0.0997216 0.000165208 0)
(0.0996064 0.000175219 0)
(0.0994881 0.000176494 0)
(0.0993719 0.000172453 0)
(0.0992605 0.000166266 0)
(0.0991549 0.000160129 0)
(0.0990548 0.000155159 0)
(0.0989595 0.000151635 0)
(0.0988681 0.000149348 0)
(0.0987801 0.000147899 0)
(0.0986949 0.000146881 0)
(0.0986124 0.00014597 0)
(0.0985324 0.000144942 0)
(0.098455 0.00014366 0)
(0.0983802 0.000142051 0)
(0.0983081 0.000140077 0)
(0.0982388 0.000137723 0)
(0.0981723 0.000134983 0)
(0.0981089 0.000131856 0)
(0.0980484 0.000128341 0)
(0.0979911 0.000124437 0)
(0.097937 0.000120144 0)
(0.0978861 0.000115467 0)
(0.0978384 0.000110414 0)
(0.0977941 0.000105004 0)
(0.0977531 9.92597e-05 0)
(0.0977153 9.32202e-05 0)
(0.0976809 8.69341e-05 0)
(0.0976496 8.04662e-05 0)
(0.0976215 7.38957e-05 0)
(0.0975964 6.73208e-05 0)
(0.0975741 6.08556e-05 0)
(0.0975545 5.46344e-05 0)
(0.0975373 4.88118e-05 0)
(0.0975223 4.35637e-05 0)
(0.097509 3.90887e-05 0)
(0.0974971 3.56099e-05 0)
(0.0974862 3.33771e-05 0)
(0.0974758 3.26685e-05 0)
(0.0974654 3.37943e-05 0)
(0.0974542 3.71012e-05 0)
(0.0974417 4.29774e-05 0)
(0.0974271 5.18589e-05 0)
(0.0974096 6.42358e-05 0)
(0.0973882 8.06644e-05 0)
(0.0973621 0.000101778 0)
(0.0973301 0.0001283 0)
(0.0972911 0.000161067 0)
(0.0972438 0.000201046 0)
(0.0971867 0.000249366 0)
(0.0971185 0.00030735 0)
(0.0970374 0.00037656 0)
(0.0969417 0.000458852 0)
(0.0968294 0.000556439 0)
(0.0966984 0.000671981 0)
(0.0965464 0.00080869 0)
(0.0963711 0.000970461 0)
(0.0961699 0.00116205 0)
(0.0959402 0.00138926 0)
(0.0956794 0.00165926 0)
(0.0953855 0.00198085 0)
(0.0950565 0.00236488 0)
(0.0946919 0.00282468 0)
(0.0942926 0.00337657 0)
(0.0938625 0.00404022 0)
(0.09341 0.00483886 0)
(0.0929501 0.00579876 0)
(0.0925072 0.00694753 0)
(0.0921191 0.00830966 0)
(0.0918392 0.0098977 0)
(0.0917379 0.0116961 0)
(0.0918957 0.0136362 0)
(0.0923808 0.0155645 0)
(0.0931974 0.0172228 0)
(0.100003 -1.12465e-05 0)
(0.100013 -9.79349e-06 0)
(0.100021 8.53029e-06 0)
(0.100014 4.31099e-05 0)
(0.0999842 8.80253e-05 0)
(0.0999287 0.000134169 0)
(0.0998486 0.000172936 0)
(0.0997495 0.000199215 0)
(0.099639 0.000212272 0)
(0.0995239 0.000214693 0)
(0.0994097 0.000210485 0)
(0.0992993 0.000203438 0)
(0.099194 0.000196226 0)
(0.0990939 0.000190255 0)
(0.0989985 0.000185926 0)
(0.0989071 0.000183044 0)
(0.0988192 0.000181165 0)
(0.0987343 0.000179823 0)
(0.0986522 0.000178636 0)
(0.0985727 0.000177339 0)
(0.0984958 0.000175766 0)
(0.0984215 0.000173823 0)
(0.0983499 0.000171464 0)
(0.098281 0.000168669 0)
(0.0982149 0.00016543 0)
(0.0981516 0.000161743 0)
(0.0980912 0.000157608 0)
(0.0980338 0.000153025 0)
(0.0979794 0.000147997 0)
(0.097928 0.000142529 0)
(0.0978796 0.000136636 0)
(0.0978344 0.000130338 0)
(0.0977921 0.000123671 0)
(0.0977529 0.000116679 0)
(0.0977166 0.000109426 0)
(0.0976833 0.00010199 0)
(0.0976527 9.44696e-05 0)
(0.0976247 8.69837e-05 0)
(0.0975992 7.96718e-05 0)
(0.097576 7.26967e-05 0)
(0.0975548 6.6245e-05 0)
(0.0975353 6.05294e-05 0)
(0.0975173 5.57893e-05 0)
(0.0975002 5.22926e-05 0)
(0.0974838 5.03384e-05 0)
(0.0974674 5.02599e-05 0)
(0.0974507 5.24279e-05 0)
(0.0974329 5.7255e-05 0)
(0.0974135 6.52023e-05 0)
(0.0973918 7.67846e-05 0)
(0.097367 9.25806e-05 0)
(0.0973383 0.000113243 0)
(0.0973048 0.00013951 0)
(0.0972655 0.000172223 0)
(0.0972195 0.000212347 0)
(0.0971656 0.00026099 0)
(0.0971026 0.000319435 0)
(0.0970292 0.000389174 0)
(0.0969443 0.000471952 0)
(0.0968462 0.000569816 0)
(0.0967337 0.000685181 0)
(0.0966051 0.000820905 0)
(0.096459 0.000980385 0)
(0.096294 0.00116767 0)
(0.0961086 0.00138758 0)
(0.0959019 0.00164589 0)
(0.0956732 0.00194948 0)
(0.0954225 0.00230656 0)
(0.0951509 0.00272683 0)
(0.0948612 0.00322171 0)
(0.0945582 0.00380435 0)
(0.0942503 0.00448958 0)
(0.0939502 0.00529342 0)
(0.0936765 0.00623195 0)
(0.0934552 0.00731903 0)
(0.0933213 0.00856228 0)
(0.093318 0.0099565 0)
(0.0934946 0.0114739 0)
(0.0938981 0.013052 0)
(0.094556 0.0145829 0)
(0.0954493 0.0159152 0)
(0.100003 -1.36392e-05 0)
(0.100014 -1.25861e-05 0)
(0.100023 8.22634e-06 0)
(0.100019 4.82051e-05 0)
(0.0999951 0.000100677 0)
(0.0999464 0.000155148 0)
(0.0998735 0.000201535 0)
(0.0997813 0.000233667 0)
(0.0996764 0.000250412 0)
(0.0995654 0.00025454 0)
(0.0994537 0.000250584 0)
(0.0993446 0.000242932 0)
(0.0992399 0.000234759 0)
(0.09914 0.000227795 0)
(0.0990447 0.000222605 0)
(0.0989535 0.000219042 0)
(0.098866 0.000216642 0)
(0.0987815 0.000214891 0)
(0.0987 0.000213361 0)
(0.0986212 0.000211743 0)
(0.0985451 0.000209841 0)
(0.0984716 0.000207544 0)
(0.0984006 0.000204791 0)
(0.0983324 0.000201557 0)
(0.0982668 0.000197828 0)
(0.098204 0.000193602 0)
(0.0981439 0.000188878 0)
(0.0980866 0.000183657 0)
(0.098032 0.000177944 0)
(0.0979803 0.000171749 0)
(0.0979315 0.000165091 0)
(0.0978854 0.000157998 0)
(0.097842 0.000150513 0)
(0.0978014 0.000142693 0)
(0.0977634 0.000134614 0)
(0.0977279 0.000126371 0)
(0.0976948 0.000118083 0)
(0.097664 0.000109889 0)
(0.0976353 0.000101956 0)
(0.0976084 9.44753e-05 0)
(0.0975831 8.76669e-05 0)
(0.0975592 8.17794e-05 0)
(0.0975362 7.70929e-05 0)
(0.0975138 7.39203e-05 0)
(0.0974917 7.26092e-05 0)
(0.0974692 7.3546e-05 0)
(0.0974461 7.71597e-05 0)
(0.0974216 8.3926e-05 0)
(0.0973953 9.43738e-05 0)
(0.0973664 0.000109092 0)
(0.0973343 0.000128739 0)
(0.0972983 0.000154053 0)
(0.0972577 0.000185864 0)
(0.0972114 0.000225113 0)
(0.0971588 0.000272866 0)
(0.0970989 0.000330342 0)
(0.0970308 0.000398936 0)
(0.0969535 0.000480255 0)
(0.096866 0.000576151 0)
(0.0967673 0.000688773 0)
(0.0966566 0.000820613 0)
(0.096533 0.000974572 0)
(0.0963957 0.00115403 0)
(0.0962442 0.00136292 0)
(0.0960784 0.00160582 0)
(0.0958985 0.00188803 0)
(0.0957055 0.00221567 0)
(0.0955012 0.00259575 0)
(0.0952889 0.00303617 0)
(0.0950735 0.00354569 0)
(0.0948622 0.00413373 0)
(0.0946651 0.00481001 0)
(0.0944962 0.00558377 0)
(0.0943735 0.00646256 0)
(0.0943199 0.00745025 0)
(0.0943631 0.00854417 0)
(0.0945337 0.00973111 0)
(0.0948625 0.0109825 0)
(0.0953738 0.0122498 0)
(0.0960753 0.0134625 0)
(0.0969458 0.0145339 0)
(0.100003 -1.62674e-05 0)
(0.100014 -1.59211e-05 0)
(0.100025 7.04669e-06 0)
(0.100025 5.21402e-05 0)
(0.100006 0.000112058 0)
(0.099965 0.000175022 0)
(0.0999002 0.000229484 0)
(0.0998157 0.000268134 0)
(0.0997171 0.000289305 0)
(0.0996109 0.000295818 0)
(0.0995024 0.000292641 0)
(0.0993953 0.000284728 0)
(0.0992916 0.000275764 0)
(0.0991923 0.000267845 0)
(0.0990973 0.000261748 0)
(0.0990066 0.000257413 0)
(0.0989195 0.000254388 0)
(0.0988358 0.000252132 0)
(0.0987551 0.000250175 0)
(0.0986772 0.000248173 0)
(0.0986021 0.000245899 0)
(0.0985295 0.00024322 0)
(0.0984595 0.000240062 0)
(0.0983921 0.00023639 0)
(0.0983273 0.000232188 0)
(0.0982651 0.00022745 0)
(0.0982055 0.000222177 0)
(0.0981485 0.00021637 0)
(0.098094 0.00021004 0)
(0.0980422 0.0002032 0)
(0.0979929 0.000195875 0)
(0.0979461 0.000188103 0)
(0.0979018 0.000179935 0)
(0.0978599 0.000171443 0)
(0.0978202 0.000162715 0)
(0.0977827 0.000153866 0)
(0.0977472 0.000145033 0)
(0.0977136 0.00013638 0)
(0.0976816 0.000128099 0)
(0.0976511 0.00012041 0)
(0.0976218 0.000113567 0)
(0.0975933 0.000107855 0)
(0.0975654 0.000103591 0)
(0.0975377 0.000101133 0)
(0.0975099 0.000100873 0)
(0.0974814 0.00010325 0)
(0.0974519 0.000108744 0)
(0.0974209 0.00011789 0)
(0.0973877 0.000131277 0)
(0.0973519 0.000149558 0)
(0.0973129 0.000173458 0)
(0.0972701 0.000203787 0)
(0.0972228 0.000241446 0)
(0.0971703 0.000287447 0)
(0.0971119 0.00034293 0)
(0.0970471 0.000409181 0)
(0.0969751 0.000487656 0)
(0.0968953 0.000580008 0)
(0.096807 0.000688116 0)
(0.0967098 0.000814124 0)
(0.0966032 0.000960473 0)
(0.096487 0.00112994 0)
(0.0963612 0.0013257 0)
(0.0962262 0.00155132 0)
(0.0960827 0.00181086 0)
(0.0959321 0.00210883 0)
(0.0957766 0.00245024 0)
(0.0956192 0.00284051 0)
(0.0954644 0.00328546 0)
(0.0953183 0.00379103 0)
(0.0951887 0.00436303 0)
(0.0950859 0.00500666 0)
(0.0950225 0.00572576 0)
(0.095014 0.00652184 0)
(0.0950782 0.00739267 0)
(0.0952346 0.00833063 0)
(0.095503 0.00932067 0)
(0.0959008 0.0103384 0)
(0.096439 0.0113491 0)
(0.097117 0.0123084 0)
(0.0979174 0.0131668 0)
(0.100003 -1.91451e-05 0)
(0.100015 -1.98515e-05 0)
(0.100027 4.86451e-06 0)
(0.10003 5.4684e-05 0)
(0.100018 0.000121827 0)
(0.0999837 0.000193365 0)
(0.0999273 0.000256322 0)
(0.0998509 0.000302177 0)
(0.0997594 0.00032858 0)
(0.0996587 0.000338251 0)
(0.099554 0.00033648 0)
(0.0994494 0.000328733 0)
(0.0993473 0.000319211 0)
(0.0992489 0.000310416 0)
(0.0991548 0.000303385 0)
(0.0990648 0.000298193 0)
(0.0989785 0.000294435 0)
(0.0988957 0.000291568 0)
(0.0988161 0.000289095 0)
(0.0987393 0.000286637 0)
(0.0986653 0.000283941 0)
(0.0985939 0.00028085 0)
(0.098525 0.000277276 0)
(0.0984587 0.000273171 0)
(0.0983948 0.000268517 0)
(0.0983334 0.000263304 0)
(0.0982744 0.000257533 0)
(0.0982178 0.000251209 0)
(0.0981636 0.000244344 0)
(0.0981117 0.000236962 0)
(0.0980622 0.000229092 0)
(0.0980148 0.000220783 0)
(0.0979696 0.000212097 0)
(0.0979264 0.00020312 0)
(0.0978852 0.000193956 0)
(0.0978457 0.000184739 0)
(0.0978079 0.000175625 0)
(0.0977715 0.000166803 0)
(0.0977363 0.00015849 0)
(0.0977022 0.000150937 0)
(0.0976689 0.000144425 0)
(0.097636 0.000139276 0)
(0.0976033 0.000135845 0)
(0.0975704 0.000134526 0)
(0.0975371 0.000135757 0)
(0.0975028 0.000140018 0)
(0.0974672 0.00014784 0)
(0.0974298 0.000159802 0)
(0.0973903 0.000176547 0)
(0.097348 0.000198776 0)
(0.0973027 0.000227267 0)
(0.0972537 0.000262878 0)
(0.0972005 0.000306556 0)
(0.0971427 0.000359355 0)
(0.0970798 0.000422448 0)
(0.0970114 0.000497138 0)
(0.096937 0.000584884 0)
(0.0968564 0.000687313 0)
(0.0967692 0.000806244 0)
(0.0966755 0.00094371 0)
(0.0965753 0.00110197 0)
(0.0964689 0.00128355 0)
(0.096357 0.00149122 0)
(0.0962405 0.00172802 0)
(0.096121 0.00199727 0)
(0.0960006 0.00230251 0)
(0.0958822 0.00264745 0)
(0.0957695 0.00303588 0)
(0.0956676 0.0034715 0)
(0.0955824 0.00395771 0)
(0.0955215 0.00449729 0)
(0.095494 0.00509197 0)
(0.0955103 0.00574186 0)
(0.0955822 0.00644483 0)
(0.0957223 0.00719566 0)
(0.0959435 0.00798524 0)
(0.0962573 0.0087998 0)
(0.0966727 0.00962042 0)
(0.0971934 0.0104233 0)
(0.0978159 0.0111808 0)
(0.0985275 0.0118646 0)
(0.100003 -2.22785e-05 0)
(0.100015 -2.44049e-05 0)
(0.100028 1.60226e-06 0)
(0.100035 5.5682e-05 0)
(0.100028 0.000129736 0)
(0.100001 0.000209839 0)
(0.0999532 0.000281652 0)
(0.0998851 0.000335382 0)
(0.0998011 0.000367852 0)
(0.0997064 0.000381516 0)
(0.0996063 0.000381851 0)
(0.0995048 0.000374774 0)
(0.0994049 0.000364994 0)
(0.0993081 0.00035545 0)
(0.0992152 0.00034749 0)
(0.0991262 0.000341375 0)
(0.0990411 0.000336788 0)
(0.0989595 0.000333206 0)
(0.0988811 0.000330125 0)
(0.0988057 0.00032714 0)
(0.098733 0.000323972 0)
(0.0986629 0.000320441 0)
(0.0985953 0.000316443 0)
(0.0985301 0.000311919 0)
(0.0984673 0.000306842 0)
(0.0984067 0.000301202 0)
(0.0983484 0.000294998 0)
(0.0982924 0.000288241 0)
(0.0982384 0.000280947 0)
(0.0981866 0.000273145 0)
(0.0981368 0.000264877 0)
(0.0980889 0.0002562 0)
(0.0980428 0.000247192 0)
(0.0979984 0.00023795 0)
(0.0979556 0.000228598 0)
(0.0979142 0.000219287 0)
(0.097874 0.000210194 0)
(0.0978349 0.000201532 0)
(0.0977967 0.000193542 0)
(0.097759 0.000186501 0)
(0.0977217 0.000180723 0)
(0.0976846 0.000176557 0)
(0.0976472 0.000174393 0)
(0.0976094 0.00017466 0)
(0.0975707 0.00017783 0)
(0.0975309 0.000184421 0)
(0.0974896 0.000195001 0)
(0.0974464 0.000210187 0)
(0.097401 0.000230656 0)
(0.097353 0.000257146 0)
(0.097302 0.000290463 0)
(0.0972477 0.000331487 0)
(0.0971898 0.000381184 0)
(0.0971279 0.000440613 0)
(0.0970618 0.000510933 0)
(0.0969912 0.000593416 0)
(0.0969161 0.00068946 0)
(0.0968365 0.000800595 0)
(0.0967523 0.000928496 0)
(0.0966641 0.00107499 0)
(0.0965722 0.00124205 0)
(0.0964774 0.00143181 0)
(0.0963808 0.00164655 0)
(0.096284 0.00188867 0)
(0.0961889 0.00216062 0)
(0.096098 0.00246493 0)
(0.0960145 0.002804 0)
(0.0959424 0.0031801 0)
(0.0958863 0.00359511 0)
(0.0958518 0.00405039 0)
(0.0958455 0.00454644 0)
(0.0958745 0.00508267 0)
(0.0959468 0.005657 0)
(0.0960708 0.0062655 0)
(0.0962547 0.00690203 0)
(0.0965063 0.00755789 0)
(0.0968316 0.00822174 0)
(0.0972347 0.00887963 0)
(0.0977158 0.00951554 0)
(0.0982708 0.0101124 0)
(0.0988905 0.0106537 0)
(0.100003 -2.56651e-05 0)
(0.100015 -2.95808e-05 0)
(0.10003 -2.75676e-06 0)
(0.100039 5.50764e-05 0)
(0.100037 0.000135659 0)
(0.100017 0.000224236 0)
(0.0999766 0.000305186 0)
(0.0999167 0.000367405 0)
(0.0998403 0.000406757 0)
(0.099752 0.000425261 0)
(0.099657 0.000428449 0)
(0.0995594 0.000422605 0)
(0.0994623 0.000412928 0)
(0.0993676 0.000402818 0)
(0.0992764 0.000393981 0)
(0.099189 0.00038691 0)
(0.0991053 0.000381417 0)
(0.0990252 0.000377035 0)
(0.0989482 0.000373264 0)
(0.0988743 0.000369689 0)
(0.098803 0.000366006 0)
(0.0987343 0.000362016 0)
(0.098668 0.000357595 0)
(0.0986041 0.000352674 0)
(0.0985423 0.000347219 0)
(0.0984827 0.000341216 0)
(0.0984251 0.000334665 0)
(0.0983695 0.00032758 0)
(0.0983159 0.000319984 0)
(0.098264 0.000311914 0)
(0.0982139 0.000303422 0)
(0.0981654 0.000294577 0)
(0.0981184 0.000285471 0)
(0.0980728 0.000276218 0)
(0.0980284 0.000266959 0)
(0.097985 0.000257861 0)
(0.0979425 0.000249125 0)
(0.0979007 0.000240982 0)
(0.0978594 0.000233699 0)
(0.0978183 0.000227578 0)
(0.0977772 0.000222956 0)
(0.0977359 0.000220211 0)
(0.097694 0.000219759 0)
(0.0976515 0.000222057 0)
(0.0976079 0.000227604 0)
(0.0975629 0.000236946 0)
(0.0975164 0.000250675 0)
(0.097468 0.000269431 0)
(0.0974174 0.000293911 0)
(0.0973644 0.000324863 0)
(0.0973088 0.000363102 0)
(0.0972502 0.000409503 0)
(0.0971887 0.000465014 0)
(0.097124 0.00053066 0)
(0.097056 0.000607543 0)
(0.0969849 0.000696853 0)
(0.0969107 0.000799867 0)
(0.0968336 0.000917954 0)
(0.0967542 0.00105257 0)
(0.0966731 0.00120527 0)
(0.0965909 0.00137765 0)
(0.0965089 0.00157141 0)
(0.0964285 0.00178824 0)
(0.0963513 0.00202986 0)
(0.0962797 0.0022979 0)
(0.0962162 0.00259388 0)
(0.0961639 0.00291909 0)
(0.0961266 0.00327448 0)
(0.0961083 0.00366054 0)
(0.0961137 0.00407714 0)
(0.096148 0.00452333 0)
(0.0962166 0.00499717 0)
(0.0963251 0.00549553 0)
(0.096479 0.00601396 0)
(0.0966833 0.00654653 0)
(0.0969422 0.00708582 0)
(0.0972586 0.007623 0)
(0.0976336 0.00814809 0)
(0.098066 0.00865037 0)
(0.098552 0.00911915 0)
(0.0990849 0.00954464 0)
(0.100003 -2.92934e-05 0)
(0.100015 -3.53492e-05 0)
(0.10003 -8.16636e-06 0)
(0.100042 5.29121e-05 0)
(0.100044 0.000139606 0)
(0.10003 0.000236495 0)
(0.0999965 0.000326768 0)
(0.0999443 0.000397998 0)
(0.0998753 0.000444976 0)
(0.0997937 0.000469136 0)
(0.0997043 0.000475928 0)
(0.0996111 0.000471916 0)
(0.0995174 0.000462756 0)
(0.0994255 0.000452322 0)
(0.0993366 0.000442713 0)
(0.0992511 0.000434702 0)
(0.0991692 0.000428268 0)
(0.0990907 0.000423027 0)
(0.0990154 0.00041851 0)
(0.098943 0.000414299 0)
(0.0988733 0.000410076 0)
(0.0988061 0.000405622 0)
(0.0987411 0.000400798 0)
(0.0986783 0.000395523 0)
(0.0986176 0.000389753 0)
(0.0985588 0.000383472 0)
(0.0985019 0.000376682 0)
(0.0984468 0.0003694 0)
(0.0983933 0.000361657 0)
(0.0983413 0.000353498 0)
(0.0982908 0.000344986 0)
(0.0982416 0.000336205 0)
(0.0981936 0.00032726 0)
(0.0981466 0.000318281 0)
(0.0981005 0.000309425 0)
(0.0980551 0.000300879 0)
(0.0980103 0.000292862 0)
(0.0979657 0.000285625 0)
(0.0979213 0.000279455 0)
(0.0978768 0.000274674 0)
(0.097832 0.000271642 0)
(0.0977867 0.000270755 0)
(0.0977407 0.00027245 0)
(0.0976937 0.000277202 0)
(0.0976455 0.00028553 0)
(0.097596 0.000297993 0)
(0.0975448 0.000315192 0)
(0.0974918 0.000337775 0)
(0.0974368 0.000366436 0)
(0.0973797 0.000401916 0)
(0.0973204 0.000445007 0)
(0.0972588 0.000496552 0)
(0.0971948 0.000557448 0)
(0.0971286 0.000628644 0)
(0.0970602 0.000711147 0)
(0.09699 0.000806016 0)
(0.0969181 0.000914359 0)
(0.0968452 0.00103733 0)
(0.0967719 0.00117612 0)
(0.0966989 0.00133195 0)
(0.0966274 0.00150604 0)
(0.0965586 0.00169957 0)
(0.0964941 0.00191369 0)
(0.0964357 0.00214945 0)
(0.0963856 0.00240773 0)
(0.0963463 0.0026892 0)
(0.0963205 0.00299424 0)
(0.0963115 0.00332283 0)
(0.0963226 0.00367449 0)
(0.0963575 0.00404813 0)
(0.09642 0.004442 0)
(0.0965139 0.00485356 0)
(0.0966428 0.00527942 0)
(0.0968103 0.00571531 0)
(0.0970189 0.00615607 0)
(0.0972707 0.00659575 0)
(0.0975666 0.0070277 0)
(0.0979065 0.00744487 0)
(0.0982884 0.00784012 0)
(0.0987093 0.00820662 0)
(0.0991642 0.00853841 0)
(0.100003 -3.31442e-05 0)
(0.100015 -4.16547e-05 0)
(0.100031 -1.45265e-05 0)
(0.100044 4.93235e-05 0)
(0.100049 0.000141711 0)
(0.100039 0.000246697 0)
(0.100012 0.000346385 0)
(0.0999671 0.000427028 0)
(0.0999052 0.000482267 0)
(0.0998303 0.000512823 0)
(0.0997466 0.000523936 0)
(0.0996583 0.000522362 0)
(0.0995687 0.000514172 0)
(0.0994801 0.000503712 0)
(0.0993939 0.000493499 0)
(0.0993108 0.000484621 0)
(0.099231 0.000477259 0)
(0.0991544 0.000471146 0)
(0.0990809 0.000465861 0)
(0.0990102 0.000461001 0)
(0.098942 0.000456239 0)
(0.0988762 0.000451342 0)
(0.0988126 0.000446158 0)
(0.0987509 0.000440594 0)
(0.0986911 0.000434599 0)
(0.0986331 0.000428154 0)
(0.0985767 0.000421262 0)
(0.0985218 0.000413945 0)
(0.0984683 0.00040624 0)
(0.0984161 0.000398204 0)
(0.098365 0.000389911 0)
(0.098315 0.000381457 0)
(0.0982658 0.000372963 0)
(0.0982174 0.000364572 0)
(0.0981695 0.00035646 0)
(0.0981219 0.000348829 0)
(0.0980746 0.000341914 0)
(0.0980273 0.000335984 0)
(0.0979799 0.000331341 0)
(0.0979321 0.000328323 0)
(0.0978837 0.000327304 0)
(0.0978347 0.000328694 0)
(0.0977847 0.000332942 0)
(0.0977336 0.000340531 0)
(0.0976814 0.000351983 0)
(0.0976277 0.000367859 0)
(0.0975725 0.000388754 0)
(0.0975157 0.000415304 0)
(0.0974572 0.00044818 0)
(0.097397 0.00048809 0)
(0.097335 0.00053578 0)
(0.0972714 0.000592028 0)
(0.0972062 0.000657649 0)
(0.0971398 0.000733486 0)
(0.0970723 0.000820411 0)
(0.0970042 0.000919316 0)
(0.0969359 0.00103111 0)
(0.0968682 0.00115669 0)
(0.0968018 0.00129696 0)
(0.0967377 0.0014528 0)
(0.0966771 0.00162501 0)
(0.0966212 0.00181433 0)
(0.0965717 0.00202138 0)
(0.0965303 0.00224663 0)
(0.096499 0.00249035 0)
(0.0964799 0.00275255 0)
(0.0964755 0.00303293 0)
(0.0964882 0.00333082 0)
(0.0965208 0.00364515 0)
(0.0965759 0.00397434 0)
(0.0966561 0.00431631 0)
(0.0967639 0.0046684 0)
(0.0969016 0.00502741 0)
(0.097071 0.0053896 0)
(0.0972735 0.00575075 0)
(0.0975097 0.00610623 0)
(0.0977796 0.00645117 0)
(0.0980823 0.00678062 0)
(0.098416 0.00708977 0)
(0.0987781 0.00737419 0)
(0.0991648 0.00763015 0)
(0.100003 -3.71935e-05 0)
(0.100015 -4.84257e-05 0)
(0.10003 -2.17008e-05 0)
(0.100045 4.45087e-05 0)
(0.100052 0.000142201 0)
(0.100046 0.000255039 0)
(0.100024 0.000364144 0)